/*--------------------------------*- C++ -*----------------------------------*\
| =========                 |                                                 |
| \\      /  F ield         | OpenFOAM: The Open Source CFD Toolbox           |
|  \\    /   O peration     | Version:  v1906                                 |
|   \\  /    A nd           | Web:      www.OpenFOAM.com                      |
|    \\/     M anipulation  |                                                 |
\*---------------------------------------------------------------------------*/
FoamFile
{
    version     2.0;
    format      ascii;
    class       volScalarField;
    location    "0.19";
    object      p;
}
// * * * * * * * * * * * * * * * * * * * * * * * * * * * * * * * * * * * * * //

dimensions      [0 2 -2 0 0 0 0];


internalField   nonuniform List<scalar> 
243374
(
-8.7298e-16
-1.39808e-09
-9.11708e-10
-9.1324e-10
-9.53751e-10
-9.93621e-10
-1.02944e-09
-1.0718e-09
-1.11017e-09
-1.14687e-09
-1.17735e-09
-1.21258e-09
-1.24371e-09
-1.27185e-09
-1.29879e-09
-1.322e-09
-1.34566e-09
-1.36881e-09
-1.38943e-09
-1.41482e-09
-1.4375e-09
-1.45948e-09
-1.48306e-09
-1.50439e-09
-1.52446e-09
-1.54985e-09
-1.56788e-09
-1.59193e-09
-1.61475e-09
-1.6368e-09
-1.65801e-09
-1.6804e-09
-1.70273e-09
-1.72325e-09
-1.74694e-09
-1.76942e-09
-1.78893e-09
-1.81407e-09
-1.8334e-09
-1.85556e-09
-1.87734e-09
-1.9014e-09
-1.9206e-09
-1.94531e-09
-1.96628e-09
-1.99067e-09
-2.01016e-09
-2.03153e-09
-2.05579e-09
-2.07771e-09
-2.10066e-09
-2.12106e-09
-2.14162e-09
-2.16457e-09
-2.18408e-09
-2.20835e-09
-2.2314e-09
-2.25247e-09
-2.27295e-09
-2.29472e-09
-2.31571e-09
-2.33829e-09
-2.36275e-09
-2.38513e-09
-2.41019e-09
-2.4354e-09
-2.4654e-09
-2.4928e-09
-2.52672e-09
-2.56879e-09
-2.6129e-09
-2.66757e-09
-2.73653e-09
-2.82548e-09
-2.93958e-09
-3.08884e-09
-3.29089e-09
-3.52806e-09
-3.35906e-09
-5.24343e-09
-1.70247e-09
-1.13732e-09
-9.23208e-10
-9.25878e-10
-9.59613e-10
-9.98171e-10
-1.03859e-09
-1.07697e-09
-1.11436e-09
-1.1497e-09
-1.186e-09
-1.21887e-09
-1.24888e-09
-1.27634e-09
-1.30268e-09
-1.32703e-09
-1.35086e-09
-1.3742e-09
-1.39596e-09
-1.41954e-09
-1.4434e-09
-1.46354e-09
-1.48658e-09
-1.50831e-09
-1.5312e-09
-1.55394e-09
-1.57551e-09
-1.59729e-09
-1.61904e-09
-1.64135e-09
-1.66368e-09
-1.68513e-09
-1.70657e-09
-1.72967e-09
-1.75137e-09
-1.77504e-09
-1.79487e-09
-1.81812e-09
-1.83801e-09
-1.86108e-09
-1.88189e-09
-1.90506e-09
-1.92921e-09
-1.94898e-09
-1.97371e-09
-1.9948e-09
-2.01685e-09
-2.03768e-09
-2.06013e-09
-2.08279e-09
-2.10474e-09
-2.12574e-09
-2.14578e-09
-2.16976e-09
-2.19086e-09
-2.21317e-09
-2.23512e-09
-2.25697e-09
-2.27968e-09
-2.29968e-09
-2.3226e-09
-2.34561e-09
-2.3677e-09
-2.39041e-09
-2.41553e-09
-2.44205e-09
-2.47155e-09
-2.50214e-09
-2.53677e-09
-2.57497e-09
-2.61965e-09
-2.67383e-09
-2.74371e-09
-2.83243e-09
-2.95009e-09
-3.10123e-09
-3.30736e-09
-3.55283e-09
-3.67103e-09
-3.59539e-09
-2.21977e-09
-1.04424e-09
-9.11356e-10
-9.25524e-10
-9.55606e-10
-9.90924e-10
-1.02854e-09
-1.06981e-09
-1.10792e-09
-1.14587e-09
-1.18145e-09
-1.2133e-09
-1.24443e-09
-1.27248e-09
-1.29806e-09
-1.3225e-09
-1.34485e-09
-1.36912e-09
-1.39199e-09
-1.41483e-09
-1.43835e-09
-1.46032e-09
-1.48236e-09
-1.50417e-09
-1.52681e-09
-1.54905e-09
-1.5706e-09
-1.59304e-09
-1.61488e-09
-1.63695e-09
-1.65884e-09
-1.68222e-09
-1.70367e-09
-1.72522e-09
-1.74736e-09
-1.76953e-09
-1.79246e-09
-1.81389e-09
-1.83686e-09
-1.85776e-09
-1.88121e-09
-1.90251e-09
-1.9244e-09
-1.9473e-09
-1.96865e-09
-1.99055e-09
-2.0123e-09
-2.03383e-09
-2.05636e-09
-2.07682e-09
-2.09979e-09
-2.12178e-09
-2.14395e-09
-2.16489e-09
-2.18699e-09
-2.20897e-09
-2.23058e-09
-2.25293e-09
-2.27477e-09
-2.29691e-09
-2.31826e-09
-2.34158e-09
-2.36363e-09
-2.386e-09
-2.41201e-09
-2.4395e-09
-2.46805e-09
-2.49986e-09
-2.53535e-09
-2.57327e-09
-2.61995e-09
-2.67553e-09
-2.74632e-09
-2.83784e-09
-2.95876e-09
-3.11303e-09
-3.32108e-09
-3.58357e-09
-3.79579e-09
-3.09061e-09
-8.02981e-10
2.94185e-09
-6.9267e-10
-8.98812e-10
-9.22359e-10
-9.52216e-10
-9.88205e-10
-1.02692e-09
-1.0679e-09
-1.10737e-09
-1.14525e-09
-1.18206e-09
-1.21686e-09
-1.24669e-09
-1.27353e-09
-1.29887e-09
-1.32317e-09
-1.34799e-09
-1.3692e-09
-1.39224e-09
-1.41525e-09
-1.43806e-09
-1.46046e-09
-1.48257e-09
-1.50525e-09
-1.52656e-09
-1.54957e-09
-1.57202e-09
-1.59322e-09
-1.615e-09
-1.63733e-09
-1.65913e-09
-1.68181e-09
-1.7034e-09
-1.72582e-09
-1.74715e-09
-1.76904e-09
-1.79108e-09
-1.81253e-09
-1.83525e-09
-1.85705e-09
-1.87987e-09
-1.90138e-09
-1.92329e-09
-1.94614e-09
-1.96846e-09
-1.99107e-09
-2.01218e-09
-2.03369e-09
-2.05638e-09
-2.0778e-09
-2.10013e-09
-2.122e-09
-2.14399e-09
-2.16616e-09
-2.18725e-09
-2.20938e-09
-2.23124e-09
-2.2533e-09
-2.27511e-09
-2.29686e-09
-2.31886e-09
-2.34147e-09
-2.36451e-09
-2.3882e-09
-2.41313e-09
-2.44008e-09
-2.4691e-09
-2.50147e-09
-2.53607e-09
-2.57507e-09
-2.62113e-09
-2.67781e-09
-2.7504e-09
-2.84468e-09
-2.96711e-09
-3.12643e-09
-3.33594e-09
-3.61183e-09
-4.13871e-09
-8.29872e-09
-5.27551e-09
-3.44071e-10
-2.84197e-09
-1.09801e-09
-9.03946e-10
-9.2101e-10
-9.49274e-10
-9.84381e-10
-1.02371e-09
-1.06448e-09
-1.10461e-09
-1.14342e-09
-1.18119e-09
-1.21429e-09
-1.24453e-09
-1.27224e-09
-1.29744e-09
-1.32172e-09
-1.34523e-09
-1.36808e-09
-1.39113e-09
-1.41357e-09
-1.43676e-09
-1.45923e-09
-1.48126e-09
-1.50344e-09
-1.52554e-09
-1.54801e-09
-1.57038e-09
-1.59209e-09
-1.61369e-09
-1.63577e-09
-1.65757e-09
-1.68049e-09
-1.70169e-09
-1.72432e-09
-1.74555e-09
-1.76734e-09
-1.78986e-09
-1.81154e-09
-1.83438e-09
-1.85683e-09
-1.87925e-09
-1.90059e-09
-1.92219e-09
-1.94421e-09
-1.96656e-09
-1.9887e-09
-2.01016e-09
-2.0325e-09
-2.055e-09
-2.07646e-09
-2.09816e-09
-2.12047e-09
-2.14264e-09
-2.16447e-09
-2.18599e-09
-2.20787e-09
-2.22963e-09
-2.25199e-09
-2.27348e-09
-2.29606e-09
-2.3181e-09
-2.34051e-09
-2.36327e-09
-2.38717e-09
-2.41228e-09
-2.43958e-09
-2.4688e-09
-2.50153e-09
-2.53643e-09
-2.57533e-09
-2.62244e-09
-2.67979e-09
-2.75353e-09
-2.84999e-09
-2.9753e-09
-3.13811e-09
-3.35127e-09
-3.62901e-09
-3.84945e-09
-2.65235e-09
-5.17331e-09
-5.79714e-09
3.50511e-10
1.29465e-09
-6.97951e-10
-8.94618e-10
-9.20797e-10
-9.47826e-10
-9.81997e-10
-1.02122e-09
-1.06272e-09
-1.1033e-09
-1.14314e-09
-1.1808e-09
-1.21423e-09
-1.24437e-09
-1.27183e-09
-1.2972e-09
-1.32118e-09
-1.34494e-09
-1.36816e-09
-1.39053e-09
-1.41341e-09
-1.43648e-09
-1.45865e-09
-1.48105e-09
-1.50302e-09
-1.52533e-09
-1.54752e-09
-1.57013e-09
-1.59151e-09
-1.61341e-09
-1.63524e-09
-1.65732e-09
-1.67961e-09
-1.70141e-09
-1.72315e-09
-1.74435e-09
-1.76669e-09
-1.78935e-09
-1.81137e-09
-1.83397e-09
-1.85673e-09
-1.87911e-09
-1.90034e-09
-1.92189e-09
-1.9439e-09
-1.96556e-09
-1.98765e-09
-2.00929e-09
-2.03204e-09
-2.05414e-09
-2.07608e-09
-2.09806e-09
-2.12004e-09
-2.14218e-09
-2.16403e-09
-2.18561e-09
-2.20748e-09
-2.22932e-09
-2.25124e-09
-2.27355e-09
-2.29564e-09
-2.31796e-09
-2.34016e-09
-2.36335e-09
-2.38756e-09
-2.41259e-09
-2.43936e-09
-2.46918e-09
-2.50197e-09
-2.53686e-09
-2.57677e-09
-2.62369e-09
-2.68188e-09
-2.75683e-09
-2.85479e-09
-2.98228e-09
-3.14651e-09
-3.36195e-09
-3.64933e-09
-4.18297e-09
-6.65153e-09
-5.33433e-09
-5.81231e-09
-3.19476e-10
-1.35449e-09
-9.31408e-10
-8.97883e-10
-9.19699e-10
-9.46615e-10
-9.80781e-10
-1.02027e-09
-1.06167e-09
-1.10244e-09
-1.14258e-09
-1.18024e-09
-1.21384e-09
-1.24399e-09
-1.2714e-09
-1.29687e-09
-1.32077e-09
-1.34468e-09
-1.36806e-09
-1.38998e-09
-1.41311e-09
-1.4359e-09
-1.45824e-09
-1.48073e-09
-1.5027e-09
-1.52509e-09
-1.54698e-09
-1.56978e-09
-1.5912e-09
-1.61297e-09
-1.63479e-09
-1.65708e-09
-1.67912e-09
-1.70071e-09
-1.72251e-09
-1.74402e-09
-1.76661e-09
-1.7889e-09
-1.81088e-09
-1.83329e-09
-1.85566e-09
-1.87741e-09
-1.8989e-09
-1.92088e-09
-1.94308e-09
-1.9649e-09
-1.98711e-09
-2.00903e-09
-2.03169e-09
-2.05377e-09
-2.07576e-09
-2.09776e-09
-2.11969e-09
-2.14194e-09
-2.16378e-09
-2.18529e-09
-2.20715e-09
-2.22878e-09
-2.25086e-09
-2.27319e-09
-2.29539e-09
-2.31776e-09
-2.34003e-09
-2.36338e-09
-2.38756e-09
-2.41285e-09
-2.43936e-09
-2.46977e-09
-2.50241e-09
-2.5375e-09
-2.57772e-09
-2.6253e-09
-2.68372e-09
-2.75941e-09
-2.8585e-09
-2.9872e-09
-3.15256e-09
-3.36915e-09
-3.65549e-09
-3.99209e-09
-4.00432e-09
-5.24237e-09
-5.86081e-09
-9.88598e-10
-1.43731e-09
-9.27376e-10
-8.97959e-10
-9.19778e-10
-9.46756e-10
-9.80802e-10
-1.02031e-09
-1.06169e-09
-1.10247e-09
-1.14249e-09
-1.18034e-09
-1.21401e-09
-1.24383e-09
-1.27159e-09
-1.29705e-09
-1.32101e-09
-1.34487e-09
-1.36803e-09
-1.39e-09
-1.41318e-09
-1.43586e-09
-1.45839e-09
-1.4808e-09
-1.50256e-09
-1.52521e-09
-1.54701e-09
-1.56969e-09
-1.59133e-09
-1.613e-09
-1.63494e-09
-1.65722e-09
-1.6792e-09
-1.70092e-09
-1.72251e-09
-1.74438e-09
-1.767e-09
-1.78913e-09
-1.81102e-09
-1.8337e-09
-1.85619e-09
-1.87816e-09
-1.89953e-09
-1.92106e-09
-1.94319e-09
-1.96509e-09
-1.98736e-09
-2.00929e-09
-2.03184e-09
-2.05389e-09
-2.076e-09
-2.09782e-09
-2.11977e-09
-2.142e-09
-2.1639e-09
-2.18547e-09
-2.20725e-09
-2.22905e-09
-2.25103e-09
-2.27347e-09
-2.29562e-09
-2.31808e-09
-2.34036e-09
-2.36374e-09
-2.38807e-09
-2.41347e-09
-2.44018e-09
-2.47051e-09
-2.50315e-09
-2.53845e-09
-2.57895e-09
-2.62678e-09
-2.6855e-09
-2.7615e-09
-2.86099e-09
-2.98989e-09
-3.15553e-09
-3.37245e-09
-3.65903e-09
-3.99118e-09
-4.08716e-09
-5.13451e-09
-5.839e-09
-1.54675e-09
1.23268e-09
-7.24126e-10
-8.95744e-10
-9.20761e-10
-9.48056e-10
-9.82077e-10
-1.02136e-09
-1.06243e-09
-1.10327e-09
-1.14285e-09
-1.18083e-09
-1.21459e-09
-1.24426e-09
-1.2724e-09
-1.29788e-09
-1.32175e-09
-1.3451e-09
-1.36892e-09
-1.39081e-09
-1.41343e-09
-1.43622e-09
-1.45891e-09
-1.48123e-09
-1.50309e-09
-1.52597e-09
-1.54736e-09
-1.57024e-09
-1.59158e-09
-1.61322e-09
-1.63545e-09
-1.65783e-09
-1.67984e-09
-1.70154e-09
-1.72308e-09
-1.74465e-09
-1.76708e-09
-1.78895e-09
-1.8108e-09
-1.83317e-09
-1.85573e-09
-1.87787e-09
-1.89954e-09
-1.92089e-09
-1.94328e-09
-1.96542e-09
-1.98814e-09
-2.01008e-09
-2.03244e-09
-2.05435e-09
-2.07643e-09
-2.09841e-09
-2.12004e-09
-2.14221e-09
-2.16453e-09
-2.18601e-09
-2.20777e-09
-2.22966e-09
-2.25146e-09
-2.27403e-09
-2.29612e-09
-2.31862e-09
-2.34106e-09
-2.36435e-09
-2.38854e-09
-2.41433e-09
-2.44141e-09
-2.47102e-09
-2.50413e-09
-2.53959e-09
-2.58036e-09
-2.62782e-09
-2.68715e-09
-2.76312e-09
-2.86221e-09
-2.99042e-09
-3.15566e-09
-3.3721e-09
-3.6608e-09
-4.22679e-09
-6.73789e-09
-5.17686e-09
-5.87403e-09
-1.51777e-09
-2.75814e-09
-1.04485e-09
-9.02514e-10
-9.2129e-10
-9.49467e-10
-9.84555e-10
-1.02399e-09
-1.06402e-09
-1.10464e-09
-1.14342e-09
-1.18118e-09
-1.21458e-09
-1.24429e-09
-1.27275e-09
-1.29796e-09
-1.32235e-09
-1.34552e-09
-1.36769e-09
-1.39115e-09
-1.41373e-09
-1.43612e-09
-1.45927e-09
-1.48104e-09
-1.50361e-09
-1.52525e-09
-1.54758e-09
-1.56947e-09
-1.59186e-09
-1.6138e-09
-1.63547e-09
-1.65819e-09
-1.67958e-09
-1.70224e-09
-1.72431e-09
-1.74596e-09
-1.76826e-09
-1.78958e-09
-1.81162e-09
-1.83384e-09
-1.85599e-09
-1.87814e-09
-1.90031e-09
-1.92151e-09
-1.94458e-09
-1.96667e-09
-1.98941e-09
-2.01069e-09
-2.03258e-09
-2.05474e-09
-2.07636e-09
-2.09901e-09
-2.1206e-09
-2.1423e-09
-2.16462e-09
-2.18597e-09
-2.20797e-09
-2.22968e-09
-2.2512e-09
-2.2746e-09
-2.29586e-09
-2.31888e-09
-2.34139e-09
-2.36482e-09
-2.3891e-09
-2.41502e-09
-2.4419e-09
-2.47166e-09
-2.50512e-09
-2.54001e-09
-2.58176e-09
-2.62935e-09
-2.68847e-09
-2.7639e-09
-2.86211e-09
-2.98961e-09
-3.1536e-09
-3.36825e-09
-3.64552e-09
-3.81278e-09
-2.61532e-09
-5.11522e-09
-5.9155e-09
-8.64285e-10
2.93956e-09
-7.27067e-10
-8.99754e-10
-9.22512e-10
-9.52172e-10
-9.88486e-10
-1.02718e-09
-1.06749e-09
-1.10727e-09
-1.14617e-09
-1.18333e-09
-1.21724e-09
-1.24733e-09
-1.2745e-09
-1.29973e-09
-1.32393e-09
-1.34684e-09
-1.37146e-09
-1.39291e-09
-1.41465e-09
-1.43768e-09
-1.46027e-09
-1.48202e-09
-1.50508e-09
-1.52817e-09
-1.55018e-09
-1.57248e-09
-1.59357e-09
-1.61474e-09
-1.63715e-09
-1.65928e-09
-1.68285e-09
-1.70394e-09
-1.72672e-09
-1.74814e-09
-1.7708e-09
-1.79106e-09
-1.81274e-09
-1.83462e-09
-1.85669e-09
-1.87875e-09
-1.90152e-09
-1.92345e-09
-1.94656e-09
-1.9689e-09
-1.99108e-09
-2.01212e-09
-2.03423e-09
-2.05711e-09
-2.07846e-09
-2.10026e-09
-2.12133e-09
-2.14447e-09
-2.1665e-09
-2.18794e-09
-2.21002e-09
-2.23172e-09
-2.2525e-09
-2.27604e-09
-2.2992e-09
-2.32003e-09
-2.34349e-09
-2.36695e-09
-2.39124e-09
-2.4166e-09
-2.44459e-09
-2.47363e-09
-2.50797e-09
-2.54184e-09
-2.58313e-09
-2.63111e-09
-2.69001e-09
-2.76466e-09
-2.86169e-09
-2.98616e-09
-3.14827e-09
-3.35973e-09
-3.63723e-09
-4.19817e-09
-8.31138e-09
-5.25619e-09
-5.80155e-09
-7.79338e-10
-2.26833e-09
-1.04943e-09
-9.12677e-10
-9.25528e-10
-9.5564e-10
-9.91314e-10
-1.02925e-09
-1.06815e-09
-1.10805e-09
-1.14551e-09
-1.18107e-09
-1.21426e-09
-1.2438e-09
-1.27169e-09
-1.29683e-09
-1.32165e-09
-1.34596e-09
-1.36807e-09
-1.39028e-09
-1.4147e-09
-1.43762e-09
-1.45975e-09
-1.48211e-09
-1.50345e-09
-1.52558e-09
-1.54731e-09
-1.56927e-09
-1.59163e-09
-1.61382e-09
-1.63586e-09
-1.65863e-09
-1.67947e-09
-1.70199e-09
-1.72433e-09
-1.74645e-09
-1.76787e-09
-1.79157e-09
-1.8131e-09
-1.83527e-09
-1.85679e-09
-1.87871e-09
-1.90181e-09
-1.92392e-09
-1.94491e-09
-1.96734e-09
-1.98836e-09
-2.01076e-09
-2.03284e-09
-2.05497e-09
-2.07652e-09
-2.09792e-09
-2.12104e-09
-2.14174e-09
-2.16398e-09
-2.1855e-09
-2.20758e-09
-2.22981e-09
-2.25235e-09
-2.27483e-09
-2.29601e-09
-2.31989e-09
-2.34096e-09
-2.36565e-09
-2.38967e-09
-2.41433e-09
-2.44247e-09
-2.47238e-09
-2.50538e-09
-2.54193e-09
-2.58377e-09
-2.63162e-09
-2.69076e-09
-2.76459e-09
-2.85952e-09
-2.98235e-09
-3.14048e-09
-3.35143e-09
-3.61635e-09
-3.8306e-09
-3.14825e-09
-5.09425e-09
-1.72632e-09
-1.14425e-09
-9.23682e-10
-9.25677e-10
-9.62492e-10
-9.98699e-10
-1.03773e-09
-1.0759e-09
-1.11433e-09
-1.15113e-09
-1.18549e-09
-1.21879e-09
-1.24874e-09
-1.2775e-09
-1.30185e-09
-1.32756e-09
-1.35031e-09
-1.37317e-09
-1.39565e-09
-1.42021e-09
-1.44267e-09
-1.46458e-09
-1.48708e-09
-1.50806e-09
-1.53016e-09
-1.5523e-09
-1.5748e-09
-1.59676e-09
-1.61862e-09
-1.64034e-09
-1.66231e-09
-1.68547e-09
-1.70683e-09
-1.72882e-09
-1.75095e-09
-1.77352e-09
-1.79639e-09
-1.81882e-09
-1.83907e-09
-1.86083e-09
-1.88431e-09
-1.90675e-09
-1.92814e-09
-1.94918e-09
-1.97189e-09
-1.99534e-09
-2.01538e-09
-2.03814e-09
-2.0596e-09
-2.08084e-09
-2.10462e-09
-2.12567e-09
-2.14631e-09
-2.16934e-09
-2.19199e-09
-2.21268e-09
-2.23464e-09
-2.25733e-09
-2.27966e-09
-2.30025e-09
-2.32411e-09
-2.34662e-09
-2.37019e-09
-2.3941e-09
-2.42116e-09
-2.44719e-09
-2.47706e-09
-2.5107e-09
-2.54803e-09
-2.5873e-09
-2.63537e-09
-2.69267e-09
-2.76511e-09
-2.85743e-09
-2.97955e-09
-3.13417e-09
-3.34268e-09
-3.59179e-09
-3.71484e-09
-3.64117e-09
-1.92434e-11
-1.40144e-09
-9.12602e-10
-9.14371e-10
-9.54073e-10
-9.93089e-10
-1.03128e-09
-1.06831e-09
-1.10987e-09
-1.14709e-09
-1.18244e-09
-1.21446e-09
-1.24271e-09
-1.2703e-09
-1.29693e-09
-1.3195e-09
-1.34563e-09
-1.36859e-09
-1.39164e-09
-1.41588e-09
-1.43708e-09
-1.45779e-09
-1.4794e-09
-1.50419e-09
-1.5278e-09
-1.54766e-09
-1.56891e-09
-1.59218e-09
-1.61055e-09
-1.63597e-09
-1.66011e-09
-1.67987e-09
-1.70272e-09
-1.72595e-09
-1.74632e-09
-1.76853e-09
-1.79348e-09
-1.81474e-09
-1.83601e-09
-1.85712e-09
-1.87922e-09
-1.89979e-09
-1.92386e-09
-1.94574e-09
-1.96743e-09
-1.98546e-09
-2.01165e-09
-2.03226e-09
-2.05676e-09
-2.07717e-09
-2.0976e-09
-2.11855e-09
-2.14319e-09
-2.16633e-09
-2.18558e-09
-2.20842e-09
-2.2305e-09
-2.25324e-09
-2.27327e-09
-2.2964e-09
-2.3199e-09
-2.34264e-09
-2.36621e-09
-2.39191e-09
-2.41199e-09
-2.44304e-09
-2.47046e-09
-2.50706e-09
-2.54139e-09
-2.5821e-09
-2.62934e-09
-2.68975e-09
-2.76044e-09
-2.85396e-09
-2.97347e-09
-3.12667e-09
-3.33185e-09
-3.57294e-09
-3.40711e-09
-5.29566e-09
-6.57531e-11
-9.60827e-10
-9.19739e-10
-9.41594e-10
-9.66102e-10
-1.00159e-09
-1.03709e-09
-1.07528e-09
-1.11171e-09
-1.14652e-09
-1.17795e-09
-1.21163e-09
-1.24192e-09
-1.27057e-09
-1.29671e-09
-1.32094e-09
-1.34453e-09
-1.36889e-09
-1.39486e-09
-1.414e-09
-1.43629e-09
-1.4595e-09
-1.48165e-09
-1.50124e-09
-1.52749e-09
-1.54822e-09
-1.5709e-09
-1.59024e-09
-1.61367e-09
-1.63819e-09
-1.65731e-09
-1.68038e-09
-1.70051e-09
-1.72397e-09
-1.7475e-09
-1.76839e-09
-1.78943e-09
-1.8105e-09
-1.83445e-09
-1.85656e-09
-1.87616e-09
-1.89996e-09
-1.9214e-09
-1.94467e-09
-1.96828e-09
-1.98756e-09
-2.01127e-09
-2.03074e-09
-2.05468e-09
-2.07725e-09
-2.0972e-09
-2.12101e-09
-2.14242e-09
-2.16381e-09
-2.18432e-09
-2.20987e-09
-2.22927e-09
-2.24742e-09
-2.27129e-09
-2.29553e-09
-2.31604e-09
-2.33766e-09
-2.35964e-09
-2.38319e-09
-2.40455e-09
-2.43036e-09
-2.45571e-09
-2.48204e-09
-2.51694e-09
-2.54897e-09
-2.58619e-09
-2.63486e-09
-2.6905e-09
-2.76271e-09
-2.85225e-09
-2.96937e-09
-3.13326e-09
-3.34508e-09
-3.58065e-09
-4.89974e-09
-1.67039e-09
-2.05078e-09
-8.95788e-10
-9.15605e-10
-9.46057e-10
-9.76806e-10
-1.00913e-09
-1.04323e-09
-1.0787e-09
-1.11291e-09
-1.14795e-09
-1.18203e-09
-1.21386e-09
-1.24489e-09
-1.27387e-09
-1.30134e-09
-1.32543e-09
-1.34973e-09
-1.37223e-09
-1.39563e-09
-1.41799e-09
-1.43987e-09
-1.46307e-09
-1.48513e-09
-1.50824e-09
-1.52975e-09
-1.5514e-09
-1.57378e-09
-1.5968e-09
-1.61732e-09
-1.64022e-09
-1.66207e-09
-1.68332e-09
-1.70482e-09
-1.72827e-09
-1.75021e-09
-1.77071e-09
-1.79363e-09
-1.81588e-09
-1.83744e-09
-1.85901e-09
-1.8835e-09
-1.9039e-09
-1.92453e-09
-1.9496e-09
-1.9698e-09
-1.9915e-09
-2.0145e-09
-2.03642e-09
-2.06041e-09
-2.07916e-09
-2.1014e-09
-2.12446e-09
-2.14518e-09
-2.16785e-09
-2.19098e-09
-2.21011e-09
-2.23316e-09
-2.25507e-09
-2.27515e-09
-2.29791e-09
-2.32268e-09
-2.34288e-09
-2.36278e-09
-2.38666e-09
-2.41111e-09
-2.43362e-09
-2.46069e-09
-2.49122e-09
-2.51899e-09
-2.55266e-09
-2.59261e-09
-2.63851e-09
-2.69667e-09
-2.77059e-09
-2.86328e-09
-2.98934e-09
-3.16038e-09
-3.39412e-09
-3.70845e-09
-2.98881e-09
-4.38127e-09
-7.79661e-10
5.58369e-10
-8.2021e-10
-9.07158e-10
-9.3954e-10
-9.70652e-10
-1.00308e-09
-1.03571e-09
-1.07077e-09
-1.10664e-09
-1.14218e-09
-1.17826e-09
-1.21279e-09
-1.24213e-09
-1.27138e-09
-1.29778e-09
-1.32266e-09
-1.34679e-09
-1.37032e-09
-1.3928e-09
-1.41627e-09
-1.43742e-09
-1.46026e-09
-1.48353e-09
-1.50472e-09
-1.52664e-09
-1.54788e-09
-1.5707e-09
-1.59352e-09
-1.61593e-09
-1.6376e-09
-1.65623e-09
-1.68009e-09
-1.70359e-09
-1.72573e-09
-1.74768e-09
-1.76836e-09
-1.79091e-09
-1.81227e-09
-1.83463e-09
-1.85689e-09
-1.87994e-09
-1.90045e-09
-1.92305e-09
-1.9451e-09
-1.96812e-09
-1.98824e-09
-2.01305e-09
-2.03417e-09
-2.05613e-09
-2.07861e-09
-2.09771e-09
-2.1221e-09
-2.14448e-09
-2.16626e-09
-2.18642e-09
-2.20847e-09
-2.2293e-09
-2.25248e-09
-2.27375e-09
-2.2962e-09
-2.31727e-09
-2.33935e-09
-2.3621e-09
-2.38459e-09
-2.4079e-09
-2.434e-09
-2.45816e-09
-2.48948e-09
-2.51981e-09
-2.55429e-09
-2.59371e-09
-2.6444e-09
-2.70533e-09
-2.78533e-09
-2.8853e-09
-3.01909e-09
-3.20001e-09
-3.44625e-09
-3.83858e-09
-5.65462e-09
-4.7006e-09
-5.0591e-09
-7.78384e-10
-6.34055e-10
-8.20867e-10
-9.0214e-10
-9.32007e-10
-9.6403e-10
-9.97674e-10
-1.03011e-09
-1.06876e-09
-1.10555e-09
-1.14195e-09
-1.17899e-09
-1.20862e-09
-1.24284e-09
-1.27238e-09
-1.29746e-09
-1.32386e-09
-1.34539e-09
-1.37117e-09
-1.39395e-09
-1.41576e-09
-1.43738e-09
-1.45846e-09
-1.48443e-09
-1.50674e-09
-1.52736e-09
-1.5484e-09
-1.56898e-09
-1.59421e-09
-1.61659e-09
-1.63697e-09
-1.6569e-09
-1.68018e-09
-1.70469e-09
-1.72677e-09
-1.74836e-09
-1.7669e-09
-1.7918e-09
-1.81303e-09
-1.83251e-09
-1.85324e-09
-1.88008e-09
-1.8997e-09
-1.92262e-09
-1.94699e-09
-1.96517e-09
-1.98855e-09
-2.01295e-09
-2.0349e-09
-2.057e-09
-2.07493e-09
-2.09941e-09
-2.12211e-09
-2.1452e-09
-2.16276e-09
-2.18745e-09
-2.20981e-09
-2.22937e-09
-2.25365e-09
-2.27149e-09
-2.2958e-09
-2.31849e-09
-2.33863e-09
-2.36305e-09
-2.38348e-09
-2.40966e-09
-2.43338e-09
-2.46064e-09
-2.49059e-09
-2.52088e-09
-2.5572e-09
-2.60023e-09
-2.65203e-09
-2.71679e-09
-2.80071e-09
-2.90592e-09
-3.04746e-09
-3.23706e-09
-3.49206e-09
-3.89053e-09
-4.5261e-09
-4.72281e-09
-5.31603e-09
-8.02194e-10
-4.67862e-10
-7.79673e-10
-8.96513e-10
-9.25047e-10
-9.61088e-10
-9.99624e-10
-1.04068e-09
-1.07703e-09
-1.11503e-09
-1.15141e-09
-1.18381e-09
-1.21972e-09
-1.24676e-09
-1.27489e-09
-1.30337e-09
-1.32603e-09
-1.35306e-09
-1.37322e-09
-1.39563e-09
-1.41838e-09
-1.44172e-09
-1.46778e-09
-1.48658e-09
-1.50863e-09
-1.52959e-09
-1.55504e-09
-1.57816e-09
-1.59536e-09
-1.61869e-09
-1.64097e-09
-1.66564e-09
-1.68659e-09
-1.70706e-09
-1.72741e-09
-1.7512e-09
-1.77762e-09
-1.79359e-09
-1.81722e-09
-1.84023e-09
-1.86324e-09
-1.88375e-09
-1.90682e-09
-1.92529e-09
-1.94936e-09
-1.9756e-09
-1.99615e-09
-2.01465e-09
-2.03635e-09
-2.05964e-09
-2.08548e-09
-2.10531e-09
-2.12497e-09
-2.1463e-09
-2.17254e-09
-2.18939e-09
-2.21185e-09
-2.23676e-09
-2.2562e-09
-2.28063e-09
-2.29846e-09
-2.32118e-09
-2.3451e-09
-2.36552e-09
-2.39334e-09
-2.41344e-09
-2.4387e-09
-2.46977e-09
-2.49749e-09
-2.5343e-09
-2.57255e-09
-2.61633e-09
-2.67156e-09
-2.74014e-09
-2.82748e-09
-2.9397e-09
-3.08699e-09
-3.28099e-09
-3.53711e-09
-3.98297e-09
-4.75086e-09
-4.84437e-09
-5.59955e-09
-8.8999e-10
-1.78724e-09
-9.2563e-10
-9.07643e-10
-9.27831e-10
-9.70077e-10
-1.0102e-09
-1.05142e-09
-1.08845e-09
-1.12479e-09
-1.15933e-09
-1.19395e-09
-1.22414e-09
-1.25324e-09
-1.28085e-09
-1.3069e-09
-1.33081e-09
-1.35505e-09
-1.37791e-09
-1.40429e-09
-1.42296e-09
-1.44949e-09
-1.46928e-09
-1.49006e-09
-1.513e-09
-1.53625e-09
-1.55723e-09
-1.58073e-09
-1.60292e-09
-1.62285e-09
-1.64425e-09
-1.66759e-09
-1.69159e-09
-1.71154e-09
-1.73586e-09
-1.75498e-09
-1.78014e-09
-1.80249e-09
-1.82217e-09
-1.84843e-09
-1.86916e-09
-1.89201e-09
-1.91439e-09
-1.93465e-09
-1.95525e-09
-1.97848e-09
-1.99815e-09
-2.02346e-09
-2.04361e-09
-2.06316e-09
-2.08797e-09
-2.108e-09
-2.12798e-09
-2.15468e-09
-2.17379e-09
-2.19665e-09
-2.21596e-09
-2.23874e-09
-2.26006e-09
-2.28237e-09
-2.30517e-09
-2.32711e-09
-2.35199e-09
-2.37082e-09
-2.39585e-09
-2.41714e-09
-2.4468e-09
-2.47466e-09
-2.51023e-09
-2.54598e-09
-2.5838e-09
-2.63055e-09
-2.68687e-09
-2.75586e-09
-2.84456e-09
-2.95892e-09
-3.11107e-09
-3.31135e-09
-3.56805e-09
-3.89204e-09
-3.49894e-09
-4.81366e-09
-5.69244e-09
-9.02342e-10
-1.75308e-09
-9.45333e-10
-9.06943e-10
-9.30826e-10
-9.70918e-10
-1.01042e-09
-1.0502e-09
-1.08811e-09
-1.12328e-09
-1.15784e-09
-1.19081e-09
-1.22207e-09
-1.25122e-09
-1.27847e-09
-1.30438e-09
-1.32767e-09
-1.35119e-09
-1.37459e-09
-1.39938e-09
-1.42011e-09
-1.44444e-09
-1.4641e-09
-1.4874e-09
-1.50973e-09
-1.53153e-09
-1.55447e-09
-1.57569e-09
-1.59784e-09
-1.61986e-09
-1.64166e-09
-1.6654e-09
-1.68847e-09
-1.71006e-09
-1.73114e-09
-1.75397e-09
-1.77613e-09
-1.80006e-09
-1.8204e-09
-1.84534e-09
-1.86693e-09
-1.88951e-09
-1.91157e-09
-1.93253e-09
-1.95226e-09
-1.97423e-09
-1.99505e-09
-2.01844e-09
-2.03946e-09
-2.06008e-09
-2.08252e-09
-2.10488e-09
-2.12524e-09
-2.14977e-09
-2.17035e-09
-2.1915e-09
-2.21349e-09
-2.23528e-09
-2.25647e-09
-2.28084e-09
-2.30223e-09
-2.32397e-09
-2.34736e-09
-2.36769e-09
-2.39158e-09
-2.41623e-09
-2.44552e-09
-2.47521e-09
-2.50699e-09
-2.5447e-09
-2.58477e-09
-2.63258e-09
-2.69019e-09
-2.76116e-09
-2.85144e-09
-2.96875e-09
-3.125e-09
-3.33089e-09
-3.59301e-09
-3.90075e-09
-3.55881e-09
-4.81391e-09
-5.75746e-09
-8.83061e-10
-1.10096e-09
-8.57281e-10
-8.99276e-10
-9.32431e-10
-9.70907e-10
-1.00991e-09
-1.0492e-09
-1.08739e-09
-1.12284e-09
-1.15737e-09
-1.19108e-09
-1.22443e-09
-1.25388e-09
-1.28145e-09
-1.30763e-09
-1.33093e-09
-1.35535e-09
-1.37756e-09
-1.39923e-09
-1.42247e-09
-1.44463e-09
-1.46682e-09
-1.48927e-09
-1.51242e-09
-1.53355e-09
-1.55749e-09
-1.57876e-09
-1.60043e-09
-1.62202e-09
-1.64466e-09
-1.66607e-09
-1.68845e-09
-1.71042e-09
-1.73295e-09
-1.75406e-09
-1.77597e-09
-1.79784e-09
-1.82007e-09
-1.84307e-09
-1.86538e-09
-1.88766e-09
-1.90992e-09
-1.9307e-09
-1.95158e-09
-1.9746e-09
-1.99862e-09
-2.01846e-09
-2.04137e-09
-2.06258e-09
-2.08281e-09
-2.10799e-09
-2.12825e-09
-2.15128e-09
-2.17332e-09
-2.19402e-09
-2.21604e-09
-2.23855e-09
-2.25924e-09
-2.2815e-09
-2.30374e-09
-2.32661e-09
-2.34755e-09
-2.37101e-09
-2.39554e-09
-2.41999e-09
-2.44736e-09
-2.47975e-09
-2.51169e-09
-2.54729e-09
-2.58797e-09
-2.63554e-09
-2.69324e-09
-2.76513e-09
-2.85726e-09
-2.97586e-09
-3.13398e-09
-3.34471e-09
-3.61992e-09
-4.00869e-09
-4.24462e-09
-5.16228e-09
-5.79728e-09
-8.89108e-10
-2.05588e-09
-9.76382e-10
-9.03504e-10
-9.30178e-10
-9.6899e-10
-1.00825e-09
-1.04735e-09
-1.08515e-09
-1.12102e-09
-1.15583e-09
-1.18983e-09
-1.22305e-09
-1.25356e-09
-1.28092e-09
-1.30545e-09
-1.32972e-09
-1.3531e-09
-1.37592e-09
-1.39903e-09
-1.42034e-09
-1.44393e-09
-1.46597e-09
-1.48832e-09
-1.5111e-09
-1.53212e-09
-1.55531e-09
-1.57598e-09
-1.59946e-09
-1.62033e-09
-1.64275e-09
-1.66452e-09
-1.68734e-09
-1.70898e-09
-1.7308e-09
-1.75199e-09
-1.77434e-09
-1.79613e-09
-1.81917e-09
-1.84157e-09
-1.86395e-09
-1.88607e-09
-1.90842e-09
-1.92893e-09
-1.9496e-09
-1.97265e-09
-1.99599e-09
-2.01708e-09
-2.03992e-09
-2.06168e-09
-2.0826e-09
-2.10572e-09
-2.12646e-09
-2.15018e-09
-2.17091e-09
-2.19335e-09
-2.21449e-09
-2.23626e-09
-2.25805e-09
-2.28044e-09
-2.30284e-09
-2.32514e-09
-2.3469e-09
-2.36954e-09
-2.3933e-09
-2.41921e-09
-2.4479e-09
-2.47904e-09
-2.51203e-09
-2.54803e-09
-2.58898e-09
-2.63734e-09
-2.69583e-09
-2.76863e-09
-2.86159e-09
-2.98199e-09
-3.14185e-09
-3.35388e-09
-3.63335e-09
-3.939e-09
-3.38204e-09
-5.11762e-09
-5.8254e-09
-7.95368e-10
-2.56791e-10
-8.17475e-10
-8.9657e-10
-9.30614e-10
-9.67904e-10
-1.00704e-09
-1.04587e-09
-1.08385e-09
-1.12006e-09
-1.15491e-09
-1.18965e-09
-1.22307e-09
-1.25369e-09
-1.28086e-09
-1.30596e-09
-1.3305e-09
-1.3528e-09
-1.37652e-09
-1.39926e-09
-1.42011e-09
-1.44397e-09
-1.46571e-09
-1.48843e-09
-1.51049e-09
-1.53248e-09
-1.55502e-09
-1.5768e-09
-1.59871e-09
-1.62046e-09
-1.64259e-09
-1.66443e-09
-1.6867e-09
-1.7084e-09
-1.72912e-09
-1.75134e-09
-1.77377e-09
-1.79548e-09
-1.81867e-09
-1.84111e-09
-1.86334e-09
-1.88546e-09
-1.90782e-09
-1.92796e-09
-1.94884e-09
-1.97166e-09
-1.99484e-09
-2.0166e-09
-2.03927e-09
-2.06094e-09
-2.08268e-09
-2.10546e-09
-2.12709e-09
-2.14945e-09
-2.17077e-09
-2.19266e-09
-2.21464e-09
-2.23661e-09
-2.25792e-09
-2.28084e-09
-2.30264e-09
-2.3251e-09
-2.34711e-09
-2.37028e-09
-2.39482e-09
-2.41992e-09
-2.4488e-09
-2.47919e-09
-2.51287e-09
-2.54937e-09
-2.59034e-09
-2.63897e-09
-2.69806e-09
-2.77173e-09
-2.86535e-09
-2.98711e-09
-3.14826e-09
-3.36207e-09
-3.64843e-09
-4.09885e-09
-5.1762e-09
-5.27972e-09
-5.85823e-09
-8.40864e-10
-1.23213e-09
-8.98896e-10
-8.98885e-10
-9.30366e-10
-9.67391e-10
-1.00648e-09
-1.04538e-09
-1.08323e-09
-1.11955e-09
-1.15441e-09
-1.18926e-09
-1.22296e-09
-1.2535e-09
-1.28042e-09
-1.30582e-09
-1.33052e-09
-1.35272e-09
-1.37572e-09
-1.39907e-09
-1.42014e-09
-1.44368e-09
-1.46535e-09
-1.48827e-09
-1.51016e-09
-1.53248e-09
-1.55425e-09
-1.57622e-09
-1.59848e-09
-1.62035e-09
-1.64214e-09
-1.66386e-09
-1.68607e-09
-1.7077e-09
-1.72852e-09
-1.75108e-09
-1.77372e-09
-1.7953e-09
-1.81847e-09
-1.84098e-09
-1.8632e-09
-1.88534e-09
-1.90752e-09
-1.92764e-09
-1.94862e-09
-1.9714e-09
-1.99405e-09
-2.01581e-09
-2.03877e-09
-2.06086e-09
-2.08238e-09
-2.1048e-09
-2.12692e-09
-2.14922e-09
-2.17067e-09
-2.1923e-09
-2.2146e-09
-2.23632e-09
-2.25824e-09
-2.28039e-09
-2.30279e-09
-2.32484e-09
-2.34688e-09
-2.37087e-09
-2.39513e-09
-2.42054e-09
-2.44904e-09
-2.47968e-09
-2.51371e-09
-2.55048e-09
-2.59144e-09
-2.6405e-09
-2.69992e-09
-2.77409e-09
-2.86852e-09
-2.99125e-09
-3.1531e-09
-3.36816e-09
-3.65444e-09
-4.01186e-09
-4.1016e-09
-5.22458e-09
-5.87954e-09
-8.46958e-10
-1.32788e-09
-9.06263e-10
-8.99154e-10
-9.304e-10
-9.67452e-10
-1.00646e-09
-1.04536e-09
-1.08325e-09
-1.11952e-09
-1.15441e-09
-1.18929e-09
-1.22292e-09
-1.25356e-09
-1.28044e-09
-1.30571e-09
-1.33006e-09
-1.35269e-09
-1.37558e-09
-1.39906e-09
-1.42028e-09
-1.44366e-09
-1.46535e-09
-1.48818e-09
-1.51018e-09
-1.53251e-09
-1.55403e-09
-1.57631e-09
-1.59844e-09
-1.62057e-09
-1.64232e-09
-1.66396e-09
-1.68585e-09
-1.70784e-09
-1.72848e-09
-1.75075e-09
-1.77384e-09
-1.79512e-09
-1.81842e-09
-1.84083e-09
-1.86326e-09
-1.88502e-09
-1.90737e-09
-1.92761e-09
-1.94864e-09
-1.97151e-09
-1.99386e-09
-2.0157e-09
-2.0388e-09
-2.06084e-09
-2.08278e-09
-2.10462e-09
-2.12713e-09
-2.14913e-09
-2.17067e-09
-2.19215e-09
-2.21457e-09
-2.23601e-09
-2.25838e-09
-2.2806e-09
-2.30286e-09
-2.32506e-09
-2.34725e-09
-2.37119e-09
-2.39555e-09
-2.4212e-09
-2.44927e-09
-2.4802e-09
-2.51463e-09
-2.55153e-09
-2.59281e-09
-2.64194e-09
-2.70171e-09
-2.77618e-09
-2.87095e-09
-2.99405e-09
-3.15617e-09
-3.37158e-09
-3.65836e-09
-4.02262e-09
-4.19929e-09
-5.23883e-09
-5.88864e-09
-7.77447e-10
-2.48446e-10
-8.0917e-10
-8.97516e-10
-9.30684e-10
-9.68115e-10
-1.00711e-09
-1.04592e-09
-1.08371e-09
-1.11995e-09
-1.15508e-09
-1.18964e-09
-1.22312e-09
-1.25372e-09
-1.28062e-09
-1.30604e-09
-1.32948e-09
-1.35263e-09
-1.37585e-09
-1.39897e-09
-1.42065e-09
-1.4437e-09
-1.46576e-09
-1.48799e-09
-1.51009e-09
-1.53266e-09
-1.55457e-09
-1.5765e-09
-1.59854e-09
-1.62061e-09
-1.64272e-09
-1.66407e-09
-1.6865e-09
-1.70817e-09
-1.72884e-09
-1.75074e-09
-1.77399e-09
-1.79512e-09
-1.81804e-09
-1.84046e-09
-1.86309e-09
-1.88507e-09
-1.90713e-09
-1.92787e-09
-1.94884e-09
-1.97193e-09
-1.99426e-09
-2.01628e-09
-2.03953e-09
-2.06124e-09
-2.08338e-09
-2.10494e-09
-2.12743e-09
-2.14957e-09
-2.17134e-09
-2.19268e-09
-2.21465e-09
-2.2362e-09
-2.25895e-09
-2.28125e-09
-2.30317e-09
-2.3257e-09
-2.34784e-09
-2.37157e-09
-2.39587e-09
-2.42184e-09
-2.45038e-09
-2.48052e-09
-2.51559e-09
-2.55227e-09
-2.59413e-09
-2.64344e-09
-2.70342e-09
-2.77798e-09
-2.87259e-09
-2.99543e-09
-3.15725e-09
-3.37234e-09
-3.66006e-09
-4.10775e-09
-5.20133e-09
-5.28044e-09
-5.8805e-09
-9.02924e-10
-2.00503e-09
-9.55183e-10
-9.02178e-10
-9.31084e-10
-9.68954e-10
-1.00835e-09
-1.0474e-09
-1.08508e-09
-1.12101e-09
-1.15573e-09
-1.19001e-09
-1.22303e-09
-1.25362e-09
-1.28039e-09
-1.30599e-09
-1.32941e-09
-1.35241e-09
-1.37555e-09
-1.39905e-09
-1.42087e-09
-1.44342e-09
-1.46594e-09
-1.48782e-09
-1.5104e-09
-1.53243e-09
-1.55449e-09
-1.57638e-09
-1.59857e-09
-1.62025e-09
-1.64225e-09
-1.66404e-09
-1.68669e-09
-1.7085e-09
-1.73005e-09
-1.75144e-09
-1.77491e-09
-1.79548e-09
-1.81798e-09
-1.8406e-09
-1.8634e-09
-1.88542e-09