/*--------------------------------*- C++ -*----------------------------------*\
| =========                 |                                                 |
| \\      /  F ield         | OpenFOAM: The Open Source CFD Toolbox           |
|  \\    /   O peration     | Version:  v1906                                 |
|   \\  /    A nd           | Web:      www.OpenFOAM.com                      |
|    \\/     M anipulation  |                                                 |
\*---------------------------------------------------------------------------*/
FoamFile
{
    version     2.0;
    format      ascii;
    class       volScalarField;
    location    "30.5";
    object      p;
}
// * * * * * * * * * * * * * * * * * * * * * * * * * * * * * * * * * * * * * //

dimensions      [0 2 -2 0 0 0 0];


internalField   nonuniform List<scalar> 
243374
(
-8.13066e-14
-3.98894e-11
-5.95292e-11
-8.25191e-11
-1.0519e-10
-1.27539e-10
-1.49756e-10
-1.7185e-10
-1.93909e-10
-2.15923e-10
-2.37914e-10
-2.59915e-10
-2.81911e-10
-3.03886e-10
-3.25876e-10
-3.47848e-10
-3.69853e-10
-3.91847e-10
-4.13834e-10
-4.35835e-10
-4.57845e-10
-4.79819e-10
-5.01805e-10
-5.23818e-10
-5.45807e-10
-5.67801e-10
-5.89798e-10
-6.11792e-10
-6.33785e-10
-6.55786e-10
-6.77782e-10
-6.99773e-10
-7.21768e-10
-7.43768e-10
-7.65771e-10
-7.87761e-10
-8.09743e-10
-8.31748e-10
-8.53753e-10
-8.75737e-10
-8.97729e-10
-9.19742e-10
-9.41725e-10
-9.63726e-10
-9.85719e-10
-1.00772e-09
-1.02972e-09
-1.05172e-09
-1.07373e-09
-1.09573e-09
-1.11775e-09
-1.13975e-09
-1.16177e-09
-1.18378e-09
-1.20582e-09
-1.22786e-09
-1.24991e-09
-1.27199e-09
-1.29409e-09
-1.31623e-09
-1.33843e-09
-1.36068e-09
-1.38303e-09
-1.4055e-09
-1.42814e-09
-1.45102e-09
-1.47423e-09
-1.49789e-09
-1.52218e-09
-1.54734e-09
-1.57373e-09
-1.60175e-09
-1.63208e-09
-1.6655e-09
-1.70326e-09
-1.74687e-09
-1.79826e-09
-1.85966e-09
-1.92835e-09
-2.04083e-09
-1.3743e-11
-4.05531e-11
-5.99005e-11
-8.26924e-11
-1.05284e-10
-1.27606e-10
-1.49801e-10
-1.71893e-10
-1.93922e-10
-2.1594e-10
-2.37944e-10
-2.59928e-10
-2.81907e-10
-3.03893e-10
-3.25879e-10
-3.4788e-10
-3.69866e-10
-3.91851e-10
-4.13861e-10
-4.35838e-10
-4.57831e-10
-4.79852e-10
-5.01832e-10
-5.23811e-10
-5.45822e-10
-5.67817e-10
-5.89808e-10
-6.11803e-10
-6.33796e-10
-6.55787e-10
-6.7779e-10
-6.99787e-10
-7.21781e-10
-7.43776e-10
-7.65776e-10
-7.87766e-10
-8.09766e-10
-8.31756e-10
-8.53755e-10
-8.75753e-10
-8.97746e-10
-9.19743e-10
-9.41739e-10
-9.63739e-10
-9.85723e-10
-1.00773e-09
-1.02974e-09
-1.05173e-09
-1.07374e-09
-1.09575e-09
-1.11774e-09
-1.13975e-09
-1.16177e-09
-1.1838e-09
-1.20582e-09
-1.22787e-09
-1.24992e-09
-1.27199e-09
-1.29409e-09
-1.31623e-09
-1.33841e-09
-1.36066e-09
-1.38301e-09
-1.40549e-09
-1.42812e-09
-1.451e-09
-1.47423e-09
-1.49789e-09
-1.52221e-09
-1.54741e-09
-1.57382e-09
-1.60194e-09
-1.63239e-09
-1.66602e-09
-1.704e-09
-1.74788e-09
-1.79959e-09
-1.86144e-09
-1.93172e-09
-2.02988e-09
-3.03294e-11
-4.07154e-11
-6.01325e-11
-8.2785e-11
-1.05325e-10
-1.27618e-10
-1.49787e-10
-1.71884e-10
-1.93934e-10
-2.15939e-10
-2.37923e-10
-2.5992e-10
-2.81907e-10
-3.03888e-10
-3.25873e-10
-3.47856e-10
-3.69848e-10
-3.91848e-10
-4.13829e-10
-4.35836e-10
-4.57841e-10
-4.79798e-10
-5.01807e-10
-5.23832e-10
-5.45808e-10
-5.678e-10
-5.89803e-10
-6.11786e-10
-6.33785e-10
-6.55777e-10
-6.77769e-10
-6.99771e-10
-7.21776e-10
-7.43774e-10
-7.6576e-10
-7.87756e-10
-8.09746e-10
-8.31748e-10
-8.53754e-10
-8.75734e-10
-8.97741e-10
-9.1974e-10
-9.41727e-10
-9.63717e-10
-9.85728e-10
-1.00772e-09
-1.02972e-09
-1.05173e-09
-1.07371e-09
-1.09571e-09
-1.11774e-09
-1.13975e-09
-1.16176e-09
-1.18377e-09
-1.2058e-09
-1.22783e-09
-1.2499e-09
-1.27196e-09
-1.29405e-09
-1.3162e-09
-1.33839e-09
-1.36063e-09
-1.38298e-09
-1.40542e-09
-1.42807e-09
-1.45096e-09
-1.47415e-09
-1.49785e-09
-1.52215e-09
-1.54737e-09
-1.57383e-09
-1.602e-09
-1.63248e-09
-1.66626e-09
-1.70442e-09
-1.74852e-09
-1.8005e-09
-1.86253e-09
-1.93361e-09
-2.01515e-09
1.27848e-10
-2.15731e-11
-3.81775e-11
-6.01586e-11
-8.28359e-11
-1.0536e-10
-1.27631e-10
-1.49853e-10
-1.71899e-10
-1.93921e-10
-2.15943e-10
-2.3796e-10
-2.59922e-10
-2.81922e-10
-3.03886e-10
-3.25878e-10
-3.47861e-10
-3.69868e-10
-3.91839e-10
-4.13867e-10
-4.35854e-10
-4.57828e-10
-4.79854e-10
-5.01823e-10
-5.2379e-10
-5.45811e-10
-5.67806e-10
-5.89807e-10
-6.11808e-10
-6.3379e-10
-6.55799e-10
-6.77799e-10
-6.99776e-10
-7.2176e-10
-7.43762e-10
-7.65787e-10
-7.87753e-10
-8.09765e-10
-8.31748e-10
-8.53737e-10
-8.75736e-10
-8.9774e-10
-9.19734e-10
-9.41727e-10
-9.63752e-10
-9.85708e-10
-1.00773e-09
-1.02974e-09
-1.05169e-09
-1.07374e-09
-1.09575e-09
-1.11773e-09
-1.13973e-09
-1.16173e-09
-1.18378e-09
-1.2058e-09
-1.22787e-09
-1.24989e-09
-1.27198e-09
-1.29407e-09
-1.31616e-09
-1.33836e-09
-1.3606e-09
-1.38293e-09
-1.40542e-09
-1.42804e-09
-1.4509e-09
-1.47414e-09
-1.49778e-09
-1.52212e-09
-1.54735e-09
-1.57381e-09
-1.602e-09
-1.63261e-09
-1.66642e-09
-1.70471e-09
-1.74897e-09
-1.80118e-09
-1.86358e-09
-1.93797e-09
-2.023e-09
-2.12309e-09
1.16287e-10
-2.87362e-11
-3.90905e-11
-6.02022e-11
-8.28742e-11
-1.05382e-10
-1.27649e-10
-1.49795e-10
-1.71915e-10
-1.93944e-10
-2.15944e-10
-2.37942e-10
-2.59915e-10
-2.81896e-10
-3.0391e-10
-3.25874e-10
-3.47887e-10
-3.69835e-10
-3.91861e-10
-4.13821e-10
-4.35814e-10
-4.57816e-10
-4.79791e-10
-5.01818e-10
-5.23847e-10
-5.45813e-10
-5.67813e-10
-5.89797e-10
-6.11782e-10
-6.33789e-10
-6.55769e-10
-6.77773e-10
-6.99766e-10
-7.21772e-10
-7.43785e-10
-7.65752e-10
-7.87762e-10
-8.09749e-10
-8.31737e-10
-8.53738e-10
-8.75737e-10
-8.97733e-10
-9.19726e-10
-9.41721e-10
-9.63717e-10
-9.8573e-10
-1.00772e-09
-1.02969e-09
-1.05175e-09
-1.07371e-09
-1.0957e-09
-1.11773e-09
-1.13975e-09
-1.16177e-09
-1.18377e-09
-1.20578e-09
-1.22779e-09
-1.24988e-09
-1.27191e-09
-1.29401e-09
-1.31619e-09
-1.33833e-09
-1.36058e-09
-1.38291e-09
-1.40535e-09
-1.42796e-09
-1.45086e-09
-1.47402e-09
-1.49771e-09
-1.52204e-09
-1.54725e-09
-1.57373e-09
-1.60195e-09
-1.63252e-09
-1.66645e-09
-1.70483e-09
-1.74919e-09
-1.80153e-09
-1.86415e-09
-1.938e-09
-2.01832e-09
-2.13743e-09
-2.32757e-09
1.10992e-10
-2.07157e-11
-3.75432e-11
-6.01227e-11
-8.28982e-11
-1.05367e-10
-1.27659e-10
-1.49872e-10
-1.71903e-10
-1.93936e-10
-2.15943e-10
-2.37943e-10
-2.59939e-10
-2.81919e-10
-3.03874e-10
-3.25898e-10
-3.47832e-10
-3.69875e-10
-3.91829e-10
-4.1385e-10
-4.35862e-10
-4.57846e-10
-4.79856e-10
-5.0182e-10
-5.23777e-10
-5.45814e-10
-5.67792e-10
-5.89798e-10
-6.11802e-10
-6.33781e-10
-6.55787e-10
-6.77789e-10
-6.998e-10
-7.21773e-10
-7.43753e-10
-7.65762e-10
-7.87744e-10
-8.09744e-10
-8.31741e-10
-8.53738e-10
-8.75726e-10
-8.97735e-10
-9.19726e-10
-9.41726e-10
-9.6372e-10
-9.85716e-10
-1.00772e-09
-1.02973e-09
-1.05168e-09
-1.07372e-09
-1.09574e-09
-1.11773e-09
-1.13971e-09
-1.16172e-09
-1.18375e-09
-1.20579e-09
-1.22784e-09
-1.24987e-09
-1.27194e-09
-1.29403e-09
-1.31611e-09
-1.33832e-09
-1.36053e-09
-1.38285e-09
-1.40531e-09
-1.42793e-09
-1.45077e-09
-1.47397e-09
-1.49761e-09
-1.52193e-09
-1.54713e-09
-1.5736e-09
-1.6018e-09
-1.63242e-09
-1.66633e-09
-1.7047e-09
-1.74916e-09
-1.80158e-09
-1.86437e-09
-1.9399e-09
-2.02614e-09
-2.14412e-09
-2.32534e-09
1.06229e-10
-2.50805e-11
-3.81842e-11
-6.01781e-11
-8.28935e-11
-1.05413e-10
-1.27658e-10
-1.49824e-10
-1.71919e-10
-1.93924e-10
-2.15973e-10
-2.37943e-10
-2.5989e-10
-2.81923e-10
-3.03913e-10
-3.25861e-10
-3.47881e-10
-3.69846e-10
-3.91876e-10
-4.13848e-10
-4.35812e-10
-4.57806e-10
-4.79796e-10
-5.01818e-10
-5.23832e-10
-5.45818e-10
-5.67814e-10
-5.89797e-10
-6.11797e-10
-6.33796e-10
-6.55781e-10
-6.77772e-10
-6.99746e-10
-7.21762e-10
-7.43783e-10
-7.6577e-10
-7.87746e-10
-8.09743e-10
-8.31735e-10
-8.53723e-10
-8.75727e-10
-8.97707e-10
-9.19722e-10
-9.41699e-10
-9.63718e-10
-9.8571e-10
-1.00771e-09
-1.02969e-09
-1.05175e-09
-1.07373e-09
-1.0957e-09
-1.1177e-09
-1.13974e-09
-1.16176e-09
-1.18376e-09
-1.20576e-09
-1.22779e-09
-1.24986e-09
-1.27189e-09
-1.29397e-09
-1.31614e-09
-1.33826e-09
-1.3605e-09
-1.38281e-09
-1.40525e-09
-1.42784e-09
-1.4507e-09
-1.47386e-09
-1.4975e-09
-1.52179e-09
-1.54698e-09
-1.57341e-09
-1.60158e-09
-1.63215e-09
-1.66606e-09
-1.70448e-09
-1.74887e-09
-1.80128e-09
-1.8641e-09
-1.93915e-09
-2.02239e-09
-2.14574e-09
-2.32376e-09
1.04357e-10
-2.50558e-11
-3.81735e-11
-6.01625e-11
-8.28945e-11
-1.05371e-10
-1.27675e-10
-1.49836e-10
-1.71916e-10
-1.93961e-10
-2.15924e-10
-2.37944e-10
-2.59946e-10
-2.81886e-10
-3.03885e-10
-3.2589e-10
-3.47833e-10
-3.69851e-10
-3.91827e-10
-4.13824e-10
-4.35857e-10
-4.57849e-10
-4.79845e-10
-5.01814e-10
-5.23798e-10
-5.45788e-10
-5.67792e-10
-5.89803e-10
-6.11784e-10
-6.33772e-10
-6.55783e-10
-6.77782e-10
-6.99795e-10
-7.21782e-10
-7.43727e-10
-7.65764e-10
-7.87745e-10
-8.09745e-10
-8.31746e-10
-8.53741e-10
-8.75729e-10
-8.97733e-10
-9.1972e-10
-9.41722e-10
-9.63718e-10
-9.85705e-10
-1.00773e-09
-1.02973e-09
-1.05167e-09
-1.0737e-09
-1.09573e-09
-1.11773e-09
-1.13971e-09
-1.16171e-09
-1.18374e-09
-1.20578e-09
-1.2278e-09
-1.24982e-09
-1.2719e-09
-1.29398e-09
-1.31604e-09
-1.33825e-09
-1.36045e-09
-1.38277e-09
-1.4052e-09
-1.42779e-09
-1.45061e-09
-1.47375e-09
-1.49735e-09
-1.52163e-09
-1.54676e-09
-1.57318e-09
-1.60129e-09
-1.63181e-09
-1.66566e-09
-1.70398e-09
-1.74832e-09
-1.80066e-09
-1.8634e-09
-1.93831e-09
-2.02148e-09
-2.14516e-09
-2.32272e-09
1.0509e-10
-2.10277e-11
-3.76075e-11
-6.0147e-11
-8.28927e-11
-1.05404e-10
-1.27642e-10
-1.49846e-10
-1.71908e-10
-1.93906e-10
-2.15973e-10
-2.37943e-10
-2.59897e-10
-2.81941e-10
-3.03889e-10
-3.25882e-10
-3.47858e-10
-3.69867e-10
-3.9188e-10
-4.13859e-10
-4.35818e-10
-4.57816e-10
-4.79809e-10
-5.01818e-10
-5.23802e-10
-5.45816e-10
-5.67816e-10
-5.89789e-10
-6.11811e-10
-6.33804e-10
-6.55784e-10
-6.77774e-10
-6.9976e-10
-7.21746e-10
-7.43806e-10
-7.65756e-10
-7.87749e-10
-8.09744e-10
-8.31742e-10
-8.53716e-10
-8.75734e-10
-8.97727e-10
-9.1972e-10
-9.41716e-10
-9.63718e-10
-9.85721e-10
-1.0077e-09
-1.02971e-09
-1.05173e-09
-1.07374e-09
-1.09571e-09
-1.11771e-09
-1.13972e-09
-1.16174e-09
-1.18374e-09
-1.20575e-09
-1.22778e-09
-1.24983e-09
-1.27186e-09
-1.29395e-09
-1.3161e-09
-1.33821e-09
-1.36043e-09
-1.38271e-09
-1.40511e-09
-1.4277e-09
-1.45051e-09
-1.47363e-09
-1.49724e-09
-1.52143e-09
-1.54653e-09
-1.57288e-09
-1.60094e-09
-1.63135e-09
-1.6651e-09
-1.70331e-09
-1.7475e-09
-1.7997e-09
-1.86227e-09
-1.93757e-09
-2.02401e-09
-2.14308e-09
-2.32191e-09
1.08696e-10
-2.85809e-11
-3.90953e-11
-6.02167e-11
-8.28766e-11
-1.05349e-10
-1.27676e-10
-1.49787e-10
-1.71912e-10
-1.93948e-10
-2.15917e-10
-2.37948e-10
-2.59947e-10
-2.81867e-10
-3.03895e-10
-3.2587e-10
-3.47857e-10
-3.6983e-10
-3.91825e-10
-4.13822e-10
-4.35846e-10
-4.57823e-10
-4.79833e-10
-5.01814e-10
-5.2381e-10
-5.45802e-10
-5.67782e-10
-5.898e-10
-6.11773e-10
-6.3377e-10
-6.55784e-10
-6.77773e-10
-6.99771e-10
-7.21791e-10
-7.43727e-10
-7.6575e-10
-7.87771e-10
-8.09744e-10
-8.31749e-10
-8.53739e-10
-8.75733e-10
-8.97729e-10
-9.19723e-10
-9.41721e-10
-9.63718e-10
-9.85719e-10
-1.00772e-09
-1.02971e-09
-1.0517e-09
-1.07368e-09
-1.09572e-09
-1.11771e-09
-1.13968e-09
-1.16171e-09
-1.18372e-09
-1.20575e-09
-1.22776e-09
-1.24979e-09
-1.27186e-09
-1.29392e-09
-1.316e-09
-1.33816e-09
-1.36037e-09
-1.38266e-09
-1.40507e-09
-1.42762e-09
-1.4504e-09
-1.47348e-09
-1.49705e-09
-1.5212e-09
-1.54626e-09
-1.57254e-09
-1.60051e-09
-1.63082e-09
-1.66442e-09
-1.70243e-09
-1.74645e-09
-1.79844e-09
-1.86067e-09
-1.93433e-09
-2.0139e-09
-2.13721e-09
-2.32193e-09
1.20766e-10
-2.17549e-11
-3.82326e-11
-6.01489e-11
-8.28425e-11
-1.05363e-10
-1.27636e-10
-1.49808e-10
-1.71905e-10
-1.93917e-10
-2.15963e-10
-2.37934e-10
-2.599e-10
-2.81931e-10
-3.03888e-10
-3.25889e-10
-3.47856e-10
-3.69878e-10
-3.9188e-10
-4.13863e-10
-4.35826e-10
-4.57829e-10
-4.79817e-10
-5.01815e-10
-5.23812e-10
-5.45803e-10
-5.67825e-10
-5.89796e-10
-6.1181e-10
-6.33802e-10
-6.55789e-10
-6.77779e-10
-6.99792e-10
-7.21743e-10
-7.43796e-10
-7.65783e-10
-7.87737e-10
-8.09756e-10
-8.31759e-10
-8.53737e-10
-8.75747e-10
-8.9773e-10
-9.19747e-10
-9.41722e-10
-9.63739e-10
-9.85713e-10
-1.00772e-09
-1.02972e-09
-1.0517e-09
-1.07373e-09
-1.0957e-09
-1.11772e-09
-1.13974e-09
-1.16171e-09
-1.18372e-09
-1.20573e-09
-1.22777e-09
-1.24979e-09
-1.27184e-09
-1.29392e-09
-1.31603e-09
-1.33815e-09
-1.36035e-09
-1.3826e-09
-1.405e-09
-1.42753e-09
-1.45029e-09
-1.47338e-09
-1.49686e-09
-1.52103e-09
-1.54595e-09
-1.57216e-09
-1.6e-09
-1.63015e-09
-1.6636e-09
-1.70141e-09
-1.74518e-09
-1.79687e-09
-1.85873e-09
-1.93254e-09
-2.0173e-09
-2.12408e-09
-2.32457e-09
1.44196e-10
-3.04286e-11
-4.07115e-11
-6.01482e-11
-8.27801e-11
-1.05307e-10
-1.27618e-10
-1.49782e-10
-1.71881e-10
-1.93921e-10
-2.15917e-10
-2.37937e-10
-2.59924e-10
-2.81869e-10
-3.03887e-10
-3.25868e-10
-3.47854e-10
-3.69838e-10
-3.91823e-10
-4.13822e-10
-4.35832e-10
-4.5782e-10
-4.79815e-10
-5.01818e-10
-5.23806e-10
-5.45808e-10
-5.67784e-10
-5.89793e-10
-6.11785e-10
-6.33774e-10
-6.55768e-10
-6.7777e-10
-6.99762e-10
-7.21784e-10
-7.43745e-10
-7.65742e-10
-7.87766e-10
-8.09752e-10
-8.31739e-10
-8.5375e-10
-8.75741e-10
-8.97728e-10
-9.1973e-10
-9.41722e-10
-9.63712e-10
-9.85717e-10
-1.00771e-09
-1.02969e-09
-1.0517e-09
-1.07369e-09
-1.0957e-09
-1.11769e-09
-1.13968e-09
-1.16171e-09
-1.18371e-09
-1.20573e-09
-1.22774e-09
-1.24977e-09
-1.27182e-09
-1.29387e-09
-1.31596e-09
-1.33809e-09
-1.36026e-09
-1.38254e-09
-1.40492e-09
-1.42743e-09
-1.45017e-09
-1.47319e-09
-1.49666e-09
-1.52064e-09
-1.54562e-09
-1.5717e-09
-1.59942e-09
-1.62939e-09
-1.66263e-09
-1.70021e-09
-1.7437e-09
-1.795e-09
-1.85636e-09
-1.92678e-09
-2.00765e-09
-2.10667e-09
-1.38122e-11
-4.05647e-11
-5.99007e-11
-8.26837e-11
-1.0528e-10
-1.27601e-10
-1.49777e-10
-1.71878e-10
-1.9392e-10
-2.15937e-10
-2.37926e-10
-2.59909e-10
-2.81921e-10
-3.03884e-10
-3.2588e-10
-3.47871e-10
-3.69862e-10
-3.91862e-10
-4.13856e-10
-4.3584e-10
-4.57831e-10
-4.79829e-10
-5.01814e-10
-5.2382e-10
-5.45805e-10
-5.6782e-10
-5.89802e-10
-6.11795e-10
-6.33799e-10
-6.55798e-10
-6.77781e-10
-6.99781e-10
-7.2176e-10
-7.43781e-10
-7.65777e-10
-7.87752e-10
-8.09755e-10
-8.31763e-10
-8.53748e-10
-8.75748e-10
-8.97749e-10
-9.1974e-10
-9.41731e-10
-9.63736e-10
-9.85716e-10
-1.00771e-09
-1.02972e-09
-1.0517e-09
-1.07371e-09
-1.0957e-09
-1.11771e-09
-1.13973e-09
-1.1617e-09
-1.18371e-09
-1.20572e-09
-1.22775e-09
-1.24978e-09
-1.2718e-09
-1.29387e-09
-1.31595e-09
-1.33807e-09
-1.36025e-09
-1.38249e-09
-1.40485e-09
-1.42734e-09
-1.45006e-09
-1.47305e-09
-1.49645e-09
-1.52046e-09
-1.54526e-09
-1.57128e-09
-1.59885e-09
-1.62861e-09
-1.66166e-09
-1.69897e-09
-1.74209e-09
-1.79297e-09
-1.85403e-09
-1.9235e-09
-2.02081e-09
-2.30677e-13
-3.99019e-11
-5.95379e-11
-8.2508e-11
-1.05172e-10
-1.27531e-10
-1.49736e-10
-1.71845e-10
-1.93895e-10
-2.1591e-10
-2.37921e-10
-2.59913e-10
-2.81869e-10
-3.03877e-10
-3.25876e-10
-3.47847e-10
-3.6985e-10
-3.91834e-10
-4.1383e-10
-4.35824e-10
-4.57825e-10
-4.79809e-10
-5.01822e-10
-5.23807e-10
-5.45804e-10
-5.67793e-10
-5.8979e-10
-6.11797e-10
-6.3378e-10
-6.55758e-10
-6.77781e-10
-6.99763e-10
-7.21767e-10
-7.43759e-10
-7.6575e-10
-7.87752e-10
-8.09756e-10
-8.31738e-10
-8.53747e-10
-8.75739e-10
-8.97728e-10
-9.19732e-10
-9.41716e-10
-9.63709e-10
-9.85711e-10
-1.00771e-09
-1.0297e-09
-1.0517e-09
-1.0737e-09
-1.0957e-09
-1.11769e-09
-1.13968e-09
-1.1617e-09
-1.18369e-09
-1.20571e-09
-1.22772e-09
-1.24973e-09
-1.27178e-09
-1.29383e-09
-1.31591e-09
-1.33802e-09
-1.36018e-09
-1.38241e-09
-1.40474e-09
-1.4272e-09
-1.44986e-09
-1.47284e-09
-1.49622e-09
-1.52008e-09
-1.54487e-09
-1.57065e-09
-1.59813e-09
-1.62762e-09
-1.66043e-09
-1.69716e-09
-1.73998e-09
-1.79044e-09
-1.85091e-09
-1.91867e-09
-2.03041e-09
-1.57935e-11
-3.2129e-11
-5.74579e-11
-8.16809e-11
-1.0476e-10
-1.27314e-10
-1.49607e-10
-1.71749e-10
-1.93842e-10
-2.15881e-10
-2.37894e-10
-2.59897e-10
-2.81888e-10
-3.03887e-10
-3.25866e-10
-3.47857e-10
-3.69854e-10
-3.91847e-10
-4.13838e-10
-4.35829e-10
-4.57834e-10
-4.79824e-10
-5.01802e-10
-5.23814e-10
-5.45806e-10
-5.6781e-10
-5.89803e-10
-6.11794e-10
-6.33779e-10
-6.55791e-10
-6.77781e-10
-6.99775e-10
-7.21761e-10
-7.43771e-10
-7.65768e-10
-7.87757e-10
-8.0975e-10
-8.31742e-10
-8.53744e-10
-8.75746e-10
-8.97733e-10
-9.19728e-10
-9.41733e-10
-9.6372e-10
-9.85735e-10
-1.00772e-09
-1.02973e-09
-1.05173e-09
-1.07374e-09
-1.09574e-09
-1.11775e-09
-1.13976e-09
-1.16179e-09
-1.1838e-09
-1.20585e-09
-1.2279e-09
-1.24996e-09
-1.27203e-09
-1.29415e-09
-1.3163e-09
-1.33851e-09
-1.36076e-09
-1.3831e-09
-1.40557e-09
-1.42821e-09
-1.45106e-09
-1.47421e-09
-1.49779e-09
-1.52194e-09
-1.54685e-09
-1.57286e-09
-1.60031e-09
-1.62977e-09
-1.66216e-09
-1.69841e-09
-1.74007e-09
-1.78921e-09
-1.8489e-09
-1.92186e-09
-2.00426e-09
1.45111e-10
-2.37529e-11
-3.37598e-11
-5.80709e-11
-8.19432e-11
-1.0491e-10
-1.27403e-10
-1.49668e-10
-1.71792e-10
-1.93866e-10
-2.15907e-10
-2.37904e-10
-2.59901e-10
-2.81907e-10
-3.03879e-10
-3.25883e-10
-3.4788e-10
-3.69858e-10
-3.91849e-10
-4.1385e-10
-4.35843e-10
-4.57825e-10
-4.79827e-10
-5.01834e-10
-5.23825e-10
-5.45819e-10
-5.67809e-10
-5.89804e-10
-6.11804e-10
-6.33819e-10
-6.5579e-10
-6.77786e-10
-6.99787e-10
-7.21785e-10
-7.43775e-10
-7.65759e-10
-7.8776e-10
-8.09771e-10
-8.31755e-10
-8.53746e-10
-8.75753e-10
-8.97746e-10
-9.19737e-10
-9.41732e-10
-9.63731e-10
-9.85742e-10
-1.00774e-09
-1.02973e-09
-1.05173e-09
-1.07374e-09
-1.09576e-09
-1.11775e-09
-1.13977e-09
-1.16178e-09
-1.18382e-09
-1.20585e-09
-1.22789e-09
-1.24995e-09
-1.27205e-09
-1.29416e-09
-1.31629e-09
-1.33849e-09
-1.36074e-09
-1.3831e-09
-1.40558e-09
-1.42821e-09
-1.45109e-09
-1.47426e-09
-1.49786e-09
-1.52205e-09
-1.54706e-09
-1.57316e-09
-1.6008e-09
-1.63067e-09
-1.66324e-09
-1.69987e-09
-1.742e-09
-1.79164e-09
-1.85176e-09
-1.92507e-09
-2.00097e-09
-2.0794e-09
1.31222e-10
-1.14153e-11
-3.44364e-11
-5.85005e-11
-8.21234e-11
-1.04989e-10
-1.27445e-10
-1.49669e-10
-1.718e-10
-1.93872e-10
-2.15892e-10
-2.37925e-10
-2.59906e-10
-2.81878e-10
-3.03903e-10
-3.25872e-10
-3.47843e-10
-3.69856e-10
-3.91852e-10
-4.13838e-10
-4.35835e-10
-4.5784e-10
-4.79822e-10
-5.01805e-10
-5.23815e-10
-5.45804e-10
-5.67812e-10
-5.89802e-10
-6.1179e-10
-6.3377e-10
-6.55793e-10
-6.77787e-10
-6.99759e-10
-7.2177e-10
-7.43764e-10
-7.65783e-10
-7.87769e-10
-8.09724e-10
-8.31749e-10
-8.53753e-10
-8.75741e-10
-8.97724e-10
-9.19739e-10
-9.41737e-10
-9.63729e-10
-9.85723e-10
-1.00772e-09
-1.02973e-09
-1.05173e-09
-1.07375e-09
-1.09572e-09
-1.11775e-09
-1.13976e-09
-1.16178e-09
-1.1838e-09
-1.20583e-09
-1.22789e-09
-1.24994e-09
-1.272e-09
-1.29412e-09
-1.31626e-09
-1.33848e-09
-1.36074e-09
-1.38308e-09
-1.40555e-09
-1.4282e-09
-1.45105e-09
-1.47426e-09
-1.49788e-09
-1.52209e-09
-1.54714e-09
-1.57336e-09
-1.60114e-09
-1.63105e-09
-1.664e-09
-1.70104e-09
-1.74365e-09
-1.79387e-09
-1.8545e-09
-1.92836e-09
-2.01777e-09
-2.08518e-09
-2.28833e-09
1.50429e-10
-1.3764e-11
-3.53808e-11
-5.89303e-11
-8.2302e-11
-1.05069e-10
-1.27496e-10
-1.49718e-10
-1.71821e-10
-1.93885e-10
-2.1591e-10
-2.37923e-10
-2.5991e-10
-2.81889e-10
-3.03877e-10
-3.25892e-10
-3.47886e-10
-3.69854e-10
-3.91855e-10
-4.13855e-10
-4.35842e-10
-4.57801e-10
-4.79819e-10
-5.0185e-10
-5.23825e-10
-5.45814e-10
-5.67808e-10
-5.8979e-10
-6.11809e-10
-6.3382e-10
-6.55779e-10
-6.7779e-10
-6.99786e-10
-7.21788e-10
-7.4377e-10
-7.65753e-10
-7.87744e-10
-8.09787e-10
-8.31762e-10
-8.53724e-10
-8.75752e-10
-8.97748e-10
-9.19727e-10
-9.41736e-10
-9.63718e-10
-9.85742e-10
-1.00773e-09
-1.02974e-09
-1.05173e-09
-1.07372e-09
-1.09576e-09
-1.11775e-09
-1.13977e-09
-1.16177e-09
-1.18381e-09
-1.20583e-09
-1.22788e-09
-1.24994e-09
-1.27204e-09
-1.29414e-09
-1.31627e-09
-1.33843e-09
-1.3607e-09
-1.38307e-09
-1.40553e-09
-1.4282e-09
-1.45107e-09
-1.47424e-09
-1.49791e-09
-1.52215e-09
-1.54728e-09
-1.57352e-09
-1.6014e-09
-1.63153e-09
-1.66473e-09
-1.70208e-09
-1.74515e-09
-1.79587e-09
-1.85694e-09
-1.93096e-09
-2.01879e-09
-2.03858e-09
-2.30578e-09
1.098e-10
-9.49362e-12
-3.57929e-11
-5.9307e-11
-8.24868e-11
-1.05162e-10
-1.27547e-10
-1.49765e-10
-1.71842e-10
-1.93914e-10
-2.15932e-10
-2.37938e-10
-2.59911e-10
-2.81913e-10
-3.03904e-10
-3.25878e-10
-3.47842e-10
-3.69856e-10
-3.91861e-10
-4.13845e-10
-4.35835e-10
-4.57859e-10
-4.79825e-10
-5.01807e-10
-5.23832e-10
-5.45811e-10
-5.67813e-10
-5.898e-10
-6.118e-10
-6.33786e-10
-6.55799e-10
-6.77783e-10
-6.99786e-10
-7.21767e-10
-7.43766e-10
-7.65777e-10
-7.87784e-10
-8.0974e-10
-8.31757e-10
-8.53762e-10
-8.75751e-10
-8.97726e-10
-9.1975e-10
-9.41737e-10
-9.63728e-10
-9.85737e-10
-1.00773e-09
-1.02972e-09
-1.05174e-09
-1.07374e-09
-1.09573e-09
-1.11776e-09
-1.13975e-09
-1.16178e-09
-1.18379e-09
-1.20585e-09
-1.22787e-09
-1.24992e-09
-1.27199e-09
-1.29411e-09
-1.31623e-09
-1.33845e-09
-1.3607e-09
-1.38304e-09
-1.40554e-09
-1.42815e-09
-1.45102e-09
-1.47425e-09
-1.49788e-09
-1.52218e-09
-1.5473e-09
-1.57366e-09
-1.60165e-09
-1.6319e-09
-1.66524e-09
-1.70289e-09
-1.7463e-09
-1.79755e-09
-1.85909e-09
-1.93392e-09
-2.02608e-09
-2.08209e-09
-2.29309e-09
8.94958e-11
-1.30483e-11
-3.73302e-11
-5.98218e-11
-8.27172e-11
-1.05295e-10
-1.27666e-10
-1.49808e-10
-1.7192e-10
-1.93941e-10
-2.15955e-10
-2.37983e-10
-2.59947e-10
-2.81893e-10
-3.03909e-10
-3.25884e-10
-3.47905e-10
-3.69879e-10
-3.91865e-10
-4.13854e-10
-4.35853e-10
-4.57797e-10
-4.79862e-10
-5.01872e-10
-5.23811e-10
-5.45816e-10
-5.67825e-10
-5.89797e-10
-6.1183e-10
-6.33812e-10
-6.55801e-10
-6.77789e-10
-6.99806e-10
-7.21798e-10
-7.43775e-10
-7.65752e-10
-7.87783e-10
-8.09783e-10
-8.31776e-10
-8.53744e-10
-8.75784e-10
-8.97763e-10
-9.1973e-10
-9.41762e-10
-9.63739e-10
-9.85751e-10
-1.00774e-09
-1.02975e-09
-1.05172e-09
-1.07375e-09
-1.09573e-09
-1.11775e-09
-1.13976e-09
-1.16177e-09
-1.18381e-09
-1.20581e-09
-1.22789e-09
-1.24994e-09
-1.27201e-09
-1.29411e-09
-1.31625e-09
-1.33841e-09
-1.36068e-09
-1.38302e-09
-1.40547e-09
-1.42816e-09
-1.451e-09
-1.47424e-09
-1.49787e-09
-1.52218e-09
-1.54737e-09
-1.57372e-09
-1.60183e-09
-1.63221e-09
-1.66576e-09
-1.70362e-09
-1.74739e-09
-1.79895e-09
-1.86073e-09
-1.9351e-09
-2.02764e-09
-2.12928e-09
-2.28888e-09
8.02269e-11
-1.65411e-11
-3.83401e-11
-6.01272e-11
-8.28728e-11
-1.05372e-10
-1.27701e-10
-1.49833e-10
-1.71921e-10
-1.93958e-10
-2.1597e-10
-2.37942e-10
-2.59936e-10
-2.81932e-10
-3.03908e-10
-3.25891e-10
-3.47852e-10
-3.69858e-10
-3.91865e-10
-4.13842e-10
-4.35826e-10
-4.57853e-10
-4.79801e-10
-5.01806e-10
-5.23852e-10
-5.45808e-10
-5.67806e-10
-5.89812e-10
-6.11784e-10
-6.33803e-10
-6.55792e-10
-6.7779e-10
-6.99772e-10
-7.21769e-10
-7.43773e-10
-7.65774e-10
-7.87772e-10
-8.09768e-10
-8.3177e-10
-8.53743e-10
-8.75754e-10
-8.97753e-10
-9.19746e-10
-9.4175e-10
-9.63701e-10
-9.85736e-10
-1.00772e-09
-1.02973e-09
-1.05176e-09
-1.07372e-09
-1.09573e-09
-1.11775e-09
-1.13976e-09
-1.16177e-09
-1.18376e-09
-1.20583e-09
-1.22782e-09
-1.24988e-09
-1.27198e-09
-1.29408e-09
-1.31622e-09
-1.3384e-09
-1.36064e-09
-1.38298e-09
-1.40544e-09
-1.42806e-09
-1.45097e-09
-1.47413e-09
-1.49783e-09
-1.52214e-09
-1.54734e-09
-1.57376e-09
-1.60191e-09
-1.63237e-09
-1.66606e-09
-1.70411e-09
-1.7481e-09
-1.79998e-09
-1.86192e-09
-1.93586e-09
-2.02661e-09
-2.14515e-09
-2.28728e-09
5.21643e-11
-1.49617e-11
-3.76678e-11
-6.02616e-11
-8.29501e-11
-1.05439e-10
-1.27729e-10
-1.49862e-10
-1.71938e-10
-1.93975e-10
-2.1598e-10
-2.37972e-10
-2.5997e-10
-2.81926e-10
-3.03894e-10
-3.25905e-10
-3.4789e-10
-3.69894e-10
-3.91865e-10
-4.13847e-10
-4.35845e-10
-4.57839e-10
-4.79868e-10
-5.01847e-10
-5.23794e-10
-5.45821e-10
-5.67821e-10
-5.898e-10
-6.11837e-10
-6.33803e-10
-6.55817e-10
-6.77774e-10
-6.99807e-10
-7.21791e-10
-7.43764e-10
-7.65771e-10
-7.87784e-10
-8.09759e-10
-8.31762e-10
-8.53761e-10
-8.75752e-10
-8.97743e-10
-9.19732e-10
-9.4175e-10
-9.63736e-10
-9.85747e-10
-1.00774e-09
-1.02974e-09
-1.05171e-09
-1.07374e-09
-1.09575e-09
-1.11775e-09
-1.13974e-09
-1.16176e-09
-1.18378e-09
-1.20582e-09
-1.22788e-09
-1.24991e-09
-1.27199e-09
-1.29406e-09
-1.31617e-09
-1.33837e-09
-1.36062e-09
-1.38295e-09
-1.4054e-09
-1.42808e-09
-1.45089e-09
-1.47417e-09
-1.49776e-09
-1.5221e-09
-1.54728e-09
-1.57376e-09
-1.60193e-09
-1.63245e-09
-1.66623e-09
-1.70446e-09
-1.74859e-09
-1.80065e-09
-1.86291e-09
-1.93799e-09
-2.0294e-09
-2.18233e-09
-2.28922e-09
4.96986e-11
-1.8449e-11
-3.86073e-11
-6.03951e-11
-8.30218e-11
-1.05472e-10
-1.27759e-10
-1.49858e-10
-1.7195e-10
-1.93976e-10
-2.15987e-10
-2.37927e-10
-2.59957e-10
-2.81928e-10
-3.03951e-10
-3.2587e-10
-3.47904e-10
-3.69841e-10
-3.91853e-10
-4.13855e-10
-4.35842e-10
-4.57826e-10
-4.7981e-10
-5.01808e-10
-5.23852e-10
-5.45817e-10
-5.67792e-10
-5.89817e-10
-6.11784e-10
-6.33807e-10
-6.55791e-10
-6.77797e-10
-6.99768e-10
-7.21777e-10
-7.43789e-10
-7.65744e-10
-7.87775e-10
-8.09755e-10
-8.31757e-10
-8.53751e-10
-8.75748e-10
-8.97737e-10
-9.19737e-10
-9.41748e-10
-9.63725e-10
-9.85735e-10
-1.00771e-09
-1.02971e-09
-1.05176e-09
-1.07372e-09
-1.09572e-09
-1.11772e-09
-1.13977e-09
-1.16177e-09
-1.18378e-09
-1.20579e-09
-1.22779e-09
-1.24984e-09
-1.27195e-09
-1.29405e-09
-1.3162e-09
-1.33834e-09
-1.36058e-09
-1.38292e-09
-1.40535e-09
-1.42797e-09
-1.45085e-09
-1.47401e-09
-1.4977e-09
-1.52198e-09
-1.54722e-09
-1.57366e-09
-1.60187e-09
-1.63242e-09
-1.66625e-09
-1.70456e-09
-1.74883e-09
-1.801e-09
-1.86341e-09
-1.93789e-09
-2.02757e-09
-2.18168e-09
-2.29036e-09
4.87137e-11
-1.59114e-11
-3.7779e-11
-6.03922e-11
-8.30694e-11
-1.05497e-10
-1.27755e-10
-1.49914e-10
-1.71942e-10
-1.93988e-10
-2.15951e-10
-2.37989e-10
-2.59969e-10
-2.81926e-10
-3.03871e-10
-3.25914e-10
-3.47877e-10
-3.699e-10
-3.91849e-10
-4.13843e-10
-4.35837e-10
-4.57874e-10
-4.79851e-10
-5.01821e-10
-5.23804e-10
-5.45794e-10
-5.67841e-10
-5.89801e-10
-6.11824e-10
-6.33796e-10
-6.55799e-10
-6.77773e-10
-6.99813e-10
-7.21793e-10
-7.43758e-10
-7.65754e-10
-7.87775e-10
-8.09753e-10
-8.31753e-10
-8.53744e-10
-8.75745e-10
-8.97734e-10
-9.19737e-10
-9.41738e-10
-9.63712e-10
-9.8573e-10
-1.00773e-09
-1.02975e-09
-1.0517e-09
-1.07372e-09
-1.09575e-09
-1.11774e-09
-1.13973e-09
-1.16174e-09
-1.18374e-09
-1.20581e-09
-1.22787e-09
-1.24988e-09
-1.27195e-09
-1.29402e-09
-1.31611e-09
-1.33832e-09
-1.36055e-09
-1.38287e-09
-1.4053e-09
-1.42796e-09
-1.45075e-09
-1.47399e-09
-1.49758e-09
-1.5219e-09
-1.54706e-09
-1.57354e-09
-1.60172e-09
-1.6323e-09
-1.66614e-09
-1.70447e-09
-1.74877e-09
-1.80104e-09
-1.86357e-09
-1.93898e-09
-2.03023e-09
-2.18247e-09
-2.29111e-09
4.77782e-11
-1.73346e-11
-3.82639e-11
-6.04516e-11
-8.30706e-11
-1.05519e-10
-1.27777e-10
-1.49856e-10
-1.71957e-10
-1.93986e-10
-2.15999e-10
-2.37946e-10
-2.59951e-10
-2.81929e-10
-3.03951e-10
-3.25862e-10
-3.47923e-10
-3.69836e-10
-3.91869e-10
-4.13865e-10
-4.35836e-10
-4.57803e-10
-4.79815e-10
-5.01846e-10
-5.23842e-10
-5.4584e-10
-5.6778e-10
-5.89816e-10
-6.11807e-10
-6.3381e-10
-6.55798e-10
-6.77792e-10
-6.99761e-10
-7.21767e-10
-7.43791e-10
-7.65747e-10
-7.87782e-10
-8.09744e-10
-8.31747e-10
-8.53742e-10
-8.75744e-10
-8.97725e-10
-9.19732e-10
-9.41736e-10
-9.63725e-10
-9.85726e-10
-1.00772e-09
-1.02971e-09
-1.05176e-09
-1.07374e-09
-1.0957e-09
-1.11773e-09
-1.13977e-09
-1.16176e-09
-1.18379e-09
-1.20578e-09
-1.22776e-09
-1.24984e-09
-1.27192e-09
-1.294e-09
-1.31615e-09
-1.33826e-09
-1.36051e-09
-1.38282e-09
-1.40525e-09
-1.42785e-09
-1.45071e-09
-1.47385e-09
-1.49749e-09
-1.52174e-09
-1.54691e-09
-1.57335e-09
-1.60153e-09
-1.63201e-09
-1.66587e-09
-1.7042e-09
-1.74852e-09
-1.80073e-09
-1.86326e-09
-1.93832e-09
-2.02876e-09
-2.18182e-09
-2.2914e-09
4.77457e-11
-1.73468e-11
-3.82665e-11
-6.04386e-11
-8.30781e-11
-1.05506e-10
-1.27774e-10
-1.49903e-10
-1.71951e-10
-1.93985e-10
-2.15959e-10
-2.37969e-10
-2.59984e-10
-2.81919e-10
-3.0387e-10
-3.2589e-10
-3.47889e-10
-3.6989e-10
-3.91819e-10
-4.13831e-10
-4.35853e-10
-4.57887e-10
-4.7985e-10
-5.01805e-10
-5.23817e-10
-5.45788e-10
-5.67835e-10
-5.89808e-10
-6.11793e-10
-6.33789e-10
-6.55776e-10
-6.77789e-10
-6.99802e-10
-7.21765e-10
-7.4377e-10
-7.65774e-10
-7.87746e-10
-8.09753e-10
-8.31742e-10
-8.5375e-10
-8.75733e-10
-8.97743e-10
-9.19728e-10
-9.41737e-10
-9.6372e-10
-9.85729e-10
-1.00772e-09
-1.02973e-09
-1.0517e-09
-1.07369e-09
-1.09574e-09
-1.11774e-09
-1.13972e-09
-1.16173e-09
-1.18372e-09
-1.20578e-09
-1.22784e-09
-1.24984e-09
-1.2719e-09
-1.29398e-09
-1.31605e-09
-1.33827e-09
-1.36046e-09
-1.38278e-09
-1.40519e-09
-1.4278e-09
-1.45058e-09
-1.47376e-09
-1.49731e-09
-1.52159e-09
-1.54672e-09
-1.57309e-09
-1.60121e-09
-1.63166e-09
-1.66546e-09
-1.7037e-09
-1.7479e-09
-1.80011e-09
-1.86255e-09
-1.93751e-09
-2.02791e-09
-2.18089e-09
-2.29038e-09
4.86797e-11
-1.60986e-11
-3.78344e-11
-6.04061e-11
-8.30524e-11
-1.05509e-10
-1.27749e-10
-1.4989e-10
-1.71926e-10
-1.93979e-10
-2.15987e-10
-2.37962e-10
-2.59952e-10
-2.81948e-10
-3.03918e-10
-3.25872e-10
-3.47921e-10
-3.69859e-10
-3.91858e-10
-4.13869e-10
-4.3583e-10
-4.57811e-10
-4.79808e-10
-5.01845e-10
-5.23839e-10
-5.4584e-10
-5.67794e-10
-5.89809e-10
-6.11791e-10
-6.33813e-10
-6.55822e-10
-6.77792e-10
-6.99771e-10
-7.21764e-10
-7.43766e-10
-7.65767e-10
-7.87798e-10
-8.09751e-10
-8.3174e-10
-8.53737e-10
-8.75742e-10
-8.97741e-10
-9.19731e-10
-9.41734e-10
-9.63719e-10
-9.8573e-10
-1.00771e-09
-1.02971e-09
-1.05174e-09
-1.07374e-09
-1.0957e-09
-1.11772e-09
-1.13976e-09
-1.16174e-09
-1.18378e-09
-1.20576e-09
-1.22774e-09
-1.24985e-09
-1.27188e-09
-1.29396e-09
-1.3161e-09
-1.3382e-09
-1.36043e-09
-1.3827e-09
-1.40512e-09
-1.42769e-09
-1.45052e-09
-1.47362e-09
-1.4972e-09
-1.52138e-09
-1.54648e-09
-1.57282e-09
-1.60082e-09
-1.63116e-09
-1.6649e-09
-1.703e-09
-1.74711e-09
-1.79914e-09
-1.86142e-09
-1.93673e-09
-2.0279e-09
-2.17969e-09
-2.28886e-09
4.9602e-11
-1.83806e-11
-3.86031e-11
-6.03954e-11
-8.30125e-11
-1.05469e-10
-1.27746e-10
-1.49871e-10
-1.71938e-10
-1.93968e-10
-2.15987e-10
-2.37945e-10
-2.5996e-10
-2.81906e-10
-3.03886e-10
-3.25874e-10
-3.47882e-10
-3.69874e-10
-3.91825e-10
-4.13829e-10
-4.35846e-10
-4.57867e-10
-4.79845e-10
-5.01812e-10
-5.23802e-10
-5.45795e-10
-5.6782e-10
-5.89814e-10
-6.11812e-10
-6.33786e-10
-6.55745e-10
-6.77796e-10
-6.99778e-10
-7.21807e-10
-7.43763e-10
-7.65772e-10
-7.87761e-10
-8.09756e-10
-8.31738e-10
-8.5376e-10
-8.75739e-10
-8.97743e-10
-9.19736e-10
-9.4174e-10