/*--------------------------------*- C++ -*----------------------------------*\
| =========                 |                                                 |
| \\      /  F ield         | OpenFOAM: The Open Source CFD Toolbox           |
|  \\    /   O peration     | Version:  v1906                                 |
|   \\  /    A nd           | Web:      www.OpenFOAM.com                      |
|    \\/     M anipulation  |                                                 |
\*---------------------------------------------------------------------------*/
FoamFile
{
    version     2.0;
    format      ascii;
    class       volScalarField;
    location    "0.3";
    object      p;
}
// * * * * * * * * * * * * * * * * * * * * * * * * * * * * * * * * * * * * * //

dimensions      [0 2 -2 0 0 0 0];


internalField   nonuniform List<scalar> 
243374
(
-6.8815e-16
-1.09072e-09
-7.48804e-10
-7.60593e-10
-8.00382e-10
-8.3844e-10
-8.74599e-10
-9.12563e-10
-9.48246e-10
-9.82044e-10
-1.01152e-09
-1.04299e-09
-1.07105e-09
-1.09751e-09
-1.12304e-09
-1.14639e-09
-1.17006e-09
-1.1929e-09
-1.21416e-09
-1.23833e-09
-1.26098e-09
-1.28336e-09
-1.30589e-09
-1.32766e-09
-1.34851e-09
-1.37255e-09
-1.39265e-09
-1.41554e-09
-1.43806e-09
-1.46005e-09
-1.48205e-09
-1.50399e-09
-1.52619e-09
-1.5472e-09
-1.57044e-09
-1.59282e-09
-1.61326e-09
-1.63687e-09
-1.65742e-09
-1.67999e-09
-1.70138e-09
-1.72466e-09
-1.74484e-09
-1.76849e-09
-1.78983e-09
-1.81294e-09
-1.83342e-09
-1.8548e-09
-1.87793e-09
-1.89978e-09
-1.92199e-09
-1.94269e-09
-1.96347e-09
-1.98577e-09
-2.00558e-09
-2.0282e-09
-2.04993e-09
-2.07051e-09
-2.09104e-09
-2.11148e-09
-2.13172e-09
-2.15285e-09
-2.1752e-09
-2.19713e-09
-2.22107e-09
-2.24682e-09
-2.27779e-09
-2.31122e-09
-2.35531e-09
-2.41262e-09
-2.48547e-09
-2.58434e-09
-2.72047e-09
-2.91334e-09
-3.17761e-09
-3.5488e-09
-4.07098e-09
-4.77403e-09
-5.38744e-09
-7.88539e-09
-1.18088e-09
-9.06046e-10
-7.59529e-10
-7.70895e-10
-8.05373e-10
-8.42425e-10
-8.79846e-10
-9.16205e-10
-9.50741e-10
-9.84254e-10
-1.01695e-09
-1.04617e-09
-1.07373e-09
-1.09959e-09
-1.12484e-09
-1.14889e-09
-1.17252e-09
-1.19568e-09
-1.21837e-09
-1.24085e-09
-1.26404e-09
-1.28577e-09
-1.30793e-09
-1.32982e-09
-1.35271e-09
-1.37465e-09
-1.39652e-09
-1.41857e-09
-1.4404e-09
-1.4625e-09
-1.48444e-09
-1.50702e-09
-1.52858e-09
-1.5512e-09
-1.5728e-09
-1.59597e-09
-1.61714e-09
-1.63939e-09
-1.6605e-09
-1.68313e-09
-1.70443e-09
-1.72699e-09
-1.75e-09
-1.77074e-09
-1.79382e-09
-1.81503e-09
-1.83706e-09
-1.85886e-09
-1.88039e-09
-1.90259e-09
-1.9241e-09
-1.94535e-09
-1.96635e-09
-1.98832e-09
-2.00996e-09
-2.03094e-09
-2.05194e-09
-2.07325e-09
-2.09449e-09
-2.11487e-09
-2.13614e-09
-2.15785e-09
-2.17881e-09
-2.20124e-09
-2.2255e-09
-2.25251e-09
-2.28372e-09
-2.3203e-09
-2.36573e-09
-2.42245e-09
-2.49765e-09
-2.59884e-09
-2.7393e-09
-2.93421e-09
-3.20708e-09
-3.58821e-09
-4.12076e-09
-4.84054e-09
-5.67785e-09
-6.8102e-09
-1.62422e-09
-8.58914e-10
-7.52545e-10
-7.70667e-10
-8.02583e-10
-8.37296e-10
-8.73812e-10
-9.11911e-10
-9.47008e-10
-9.81748e-10
-1.01356e-09
-1.04296e-09
-1.0709e-09
-1.09721e-09
-1.12206e-09
-1.14606e-09
-1.16905e-09
-1.19298e-09
-1.21552e-09
-1.23805e-09
-1.26132e-09
-1.28327e-09
-1.3055e-09
-1.32726e-09
-1.34978e-09
-1.3718e-09
-1.3934e-09
-1.41601e-09
-1.43801e-09
-1.45995e-09
-1.48226e-09
-1.50463e-09
-1.52647e-09
-1.54811e-09
-1.57056e-09
-1.59256e-09
-1.61507e-09
-1.63681e-09
-1.65932e-09
-1.68047e-09
-1.70352e-09
-1.72507e-09
-1.74702e-09
-1.76937e-09
-1.79086e-09
-1.81255e-09
-1.8345e-09
-1.85611e-09
-1.87821e-09
-1.89859e-09
-1.92131e-09
-1.94313e-09
-1.96477e-09
-1.98557e-09
-2.00734e-09
-2.02857e-09
-2.04952e-09
-2.07117e-09
-2.0923e-09
-2.11293e-09
-2.13405e-09
-2.15577e-09
-2.17718e-09
-2.19887e-09
-2.22463e-09
-2.25215e-09
-2.28363e-09
-2.32115e-09
-2.36753e-09
-2.42605e-09
-2.50388e-09
-2.60824e-09
-2.75208e-09
-2.95268e-09
-3.23326e-09
-3.62337e-09
-4.16541e-09
-4.90572e-09
-5.80536e-09
-6.44801e-09
-6.32665e-10
1.48288e-09
-5.8405e-10
-7.4273e-10
-7.68393e-10
-7.99824e-10
-8.35699e-10
-8.73287e-10
-9.11157e-10
-9.47657e-10
-9.818e-10
-1.01496e-09
-1.04536e-09
-1.07288e-09
-1.09851e-09
-1.12326e-09
-1.14731e-09
-1.17154e-09
-1.19321e-09
-1.21621e-09
-1.23916e-09
-1.26133e-09
-1.28377e-09
-1.30603e-09
-1.32866e-09
-1.35016e-09
-1.37288e-09
-1.39522e-09
-1.41661e-09
-1.43863e-09
-1.4608e-09
-1.48255e-09
-1.50482e-09
-1.52653e-09
-1.54916e-09
-1.57071e-09
-1.59257e-09
-1.61439e-09
-1.63606e-09
-1.65816e-09
-1.67999e-09
-1.7025e-09
-1.7244e-09
-1.7466e-09
-1.76898e-09
-1.79144e-09
-1.81373e-09
-1.83461e-09
-1.85638e-09
-1.87852e-09
-1.9005e-09
-1.92231e-09
-1.9437e-09
-1.96518e-09
-1.9873e-09
-2.00794e-09
-2.02956e-09
-2.05089e-09
-2.07184e-09
-2.0928e-09
-2.11366e-09
-2.13496e-09
-2.15662e-09
-2.17902e-09
-2.20253e-09
-2.22689e-09
-2.25446e-09
-2.28645e-09
-2.32511e-09
-2.37203e-09
-2.43194e-09
-2.51109e-09
-2.61798e-09
-2.76529e-09
-2.97082e-09
-3.25712e-09
-3.65605e-09
-4.20767e-09
-4.96555e-09
-6.124e-09
-9.58637e-09
-8.99043e-09
-2.84972e-10
-1.88194e-09
-8.90032e-10
-7.47182e-10
-7.66579e-10
-7.96989e-10
-8.3297e-10
-8.71226e-10
-9.09242e-10
-9.45854e-10
-9.80853e-10
-1.01401e-09
-1.04345e-09
-1.07122e-09
-1.09741e-09
-1.12213e-09
-1.14616e-09
-1.16952e-09
-1.1925e-09
-1.2155e-09
-1.23799e-09
-1.26073e-09
-1.28309e-09
-1.30523e-09
-1.3274e-09
-1.34951e-09
-1.37185e-09
-1.39381e-09
-1.41592e-09
-1.43786e-09
-1.45984e-09
-1.48173e-09
-1.50416e-09
-1.52578e-09
-1.54815e-09
-1.56971e-09
-1.59146e-09
-1.61354e-09
-1.6353e-09
-1.65757e-09
-1.6798e-09
-1.70207e-09
-1.72386e-09
-1.74583e-09
-1.76773e-09
-1.79017e-09
-1.81219e-09
-1.83365e-09
-1.85569e-09
-1.87782e-09
-1.89943e-09
-1.92106e-09
-1.9429e-09
-1.96451e-09
-1.9861e-09
-2.00735e-09
-2.02878e-09
-2.04991e-09
-2.07129e-09
-2.09229e-09
-2.11361e-09
-2.13501e-09
-2.15675e-09
-2.17891e-09
-2.20232e-09
-2.22753e-09
-2.25575e-09
-2.28811e-09
-2.32755e-09
-2.37551e-09
-2.43634e-09
-2.51733e-09
-2.62624e-09
-2.77638e-09
-2.98593e-09
-3.27811e-09
-3.68393e-09
-4.24386e-09
-5.00838e-09
-5.91045e-09
-6.39477e-09
-9.00664e-09
-1.08589e-08
8.75315e-11
6.71213e-10
-5.90389e-10
-7.39039e-10
-7.65888e-10
-7.95506e-10
-8.31442e-10
-8.69836e-10
-9.08375e-10
-9.45277e-10
-9.80751e-10
-1.01389e-09
-1.0438e-09
-1.07127e-09
-1.09728e-09
-1.12213e-09
-1.14599e-09
-1.16956e-09
-1.19267e-09
-1.21526e-09
-1.23802e-09
-1.26065e-09
-1.28297e-09
-1.30526e-09
-1.32725e-09
-1.34954e-09
-1.37168e-09
-1.39386e-09
-1.41568e-09
-1.43788e-09
-1.45969e-09
-1.48172e-09
-1.50386e-09
-1.52574e-09
-1.5475e-09
-1.56903e-09
-1.59106e-09
-1.61324e-09
-1.6352e-09
-1.6574e-09
-1.67978e-09
-1.70211e-09
-1.72384e-09
-1.74572e-09
-1.76759e-09
-1.78959e-09
-1.8117e-09
-1.83338e-09
-1.85566e-09
-1.87753e-09
-1.89936e-09
-1.92118e-09
-1.9429e-09
-1.96449e-09
-1.98609e-09
-2.00739e-09
-2.02884e-09
-2.0501e-09
-2.07128e-09
-2.09274e-09
-2.11389e-09
-2.1355e-09
-2.15727e-09
-2.17982e-09
-2.20359e-09
-2.22893e-09
-2.25718e-09
-2.29026e-09
-2.33022e-09
-2.37876e-09
-2.441e-09
-2.52284e-09
-2.63352e-09
-2.78601e-09
-2.9986e-09
-3.29512e-09
-3.7054e-09
-4.27105e-09
-5.04802e-09
-6.22391e-09
-8.8534e-09
-9.16552e-09
-1.09565e-08
-2.97495e-10
-9.78333e-10
-7.72214e-10
-7.42292e-10
-7.6487e-10
-7.94475e-10
-8.30494e-10
-8.69235e-10
-9.07822e-10
-9.44793e-10
-9.80538e-10
-1.01359e-09
-1.0435e-09
-1.07104e-09
-1.09699e-09
-1.12188e-09
-1.14573e-09
-1.16943e-09
-1.19255e-09
-1.21499e-09
-1.23781e-09
-1.26038e-09
-1.28274e-09
-1.30508e-09
-1.3271e-09
-1.34939e-09
-1.37135e-09
-1.39367e-09
-1.41557e-09
-1.43761e-09
-1.45945e-09
-1.48159e-09
-1.5036e-09
-1.52531e-09
-1.5471e-09
-1.56877e-09
-1.59096e-09
-1.61293e-09
-1.63485e-09
-1.65696e-09
-1.67891e-09
-1.70078e-09
-1.72271e-09
-1.74488e-09
-1.76699e-09
-1.78912e-09
-1.81132e-09
-1.83322e-09
-1.85549e-09
-1.87742e-09
-1.89922e-09
-1.92098e-09
-1.94276e-09
-1.96447e-09
-1.98601e-09
-2.00738e-09
-2.02878e-09
-2.04993e-09
-2.07135e-09
-2.09279e-09
-2.11421e-09
-2.1358e-09
-2.1578e-09
-2.1805e-09
-2.2044e-09
-2.23013e-09
-2.2585e-09
-2.29228e-09
-2.33255e-09
-2.38169e-09
-2.44469e-09
-2.52773e-09
-2.63948e-09
-2.79354e-09
-3.00828e-09
-3.30753e-09
-3.72079e-09
-4.28973e-09
-5.06826e-09
-6.08666e-09
-7.29662e-09
-9.13784e-09
-1.10179e-08
-7.41443e-10
-1.00379e-09
-7.68368e-10
-7.42283e-10
-7.64824e-10
-7.94493e-10
-8.30487e-10
-8.69254e-10
-9.07842e-10
-9.44806e-10
-9.80486e-10
-1.01361e-09
-1.04357e-09
-1.07098e-09
-1.09706e-09
-1.12194e-09
-1.14581e-09
-1.16957e-09
-1.19241e-09
-1.21496e-09
-1.23782e-09
-1.26036e-09
-1.28282e-09
-1.30512e-09
-1.32703e-09
-1.34941e-09
-1.37135e-09
-1.39361e-09
-1.41563e-09
-1.43764e-09
-1.45956e-09
-1.48165e-09
-1.50366e-09
-1.52545e-09
-1.54714e-09
-1.569e-09
-1.59131e-09
-1.61319e-09
-1.63519e-09
-1.6575e-09
-1.67957e-09
-1.70154e-09
-1.72332e-09
-1.74518e-09
-1.76715e-09
-1.78928e-09
-1.81147e-09
-1.83338e-09
-1.85562e-09
-1.87752e-09
-1.8994e-09
-1.92101e-09
-1.94288e-09
-1.96458e-09
-1.98612e-09
-2.0076e-09
-2.02896e-09
-2.05021e-09
-2.07167e-09
-2.09323e-09
-2.11473e-09
-2.13638e-09
-2.15848e-09
-2.18135e-09
-2.2055e-09
-2.23144e-09
-2.26013e-09
-2.2942e-09
-2.33476e-09
-2.38434e-09
-2.44803e-09
-2.53169e-09
-2.6442e-09
-2.79909e-09
-3.01477e-09
-3.31492e-09
-3.72915e-09
-4.29907e-09
-5.07838e-09
-6.09257e-09
-7.3313e-09
-9.08079e-09
-1.10721e-08
-1.02645e-09
5.93902e-10
-6.00441e-10
-7.40138e-10
-7.65778e-10
-7.95646e-10
-8.31411e-10
-8.6989e-10
-9.08281e-10
-9.45253e-10
-9.80668e-10
-1.01385e-09
-1.04396e-09
-1.07132e-09
-1.09751e-09
-1.12246e-09
-1.14618e-09
-1.16972e-09
-1.19326e-09
-1.21537e-09
-1.2379e-09
-1.26053e-09
-1.28309e-09
-1.30541e-09
-1.32731e-09
-1.34999e-09
-1.37155e-09
-1.39421e-09
-1.41576e-09
-1.43776e-09
-1.45994e-09
-1.48193e-09
-1.50426e-09
-1.52585e-09
-1.54749e-09
-1.56917e-09
-1.59127e-09
-1.61302e-09
-1.63484e-09
-1.65694e-09
-1.67921e-09
-1.70139e-09
-1.72331e-09
-1.74509e-09
-1.76722e-09
-1.78953e-09
-1.81195e-09
-1.83383e-09
-1.85608e-09
-1.8778e-09
-1.89979e-09
-1.92131e-09
-1.94307e-09
-1.96479e-09
-1.98653e-09
-2.00808e-09
-2.02936e-09
-2.0507e-09
-2.07218e-09
-2.0938e-09
-2.11556e-09
-2.13708e-09
-2.15936e-09
-2.18235e-09
-2.20657e-09
-2.23279e-09
-2.26193e-09
-2.29583e-09
-2.33686e-09
-2.38705e-09
-2.45088e-09
-2.53457e-09
-2.6476e-09
-2.80265e-09
-3.01806e-09
-3.3174e-09
-3.73067e-09
-4.29934e-09
-5.08026e-09
-6.27293e-09
-8.95678e-09
-9.08394e-09
-1.10666e-08
-1.05571e-09
-1.82477e-09
-8.77207e-10
-7.46193e-10
-7.66564e-10
-7.96962e-10
-8.32971e-10
-8.71387e-10
-9.09078e-10
-9.45844e-10
-9.8083e-10
-1.01389e-09
-1.04354e-09
-1.07099e-09
-1.09751e-09
-1.12219e-09
-1.14628e-09
-1.16984e-09
-1.19209e-09
-1.21536e-09
-1.23794e-09
-1.2604e-09
-1.28315e-09
-1.30521e-09
-1.32744e-09
-1.34914e-09
-1.37143e-09
-1.39324e-09
-1.41575e-09
-1.43789e-09
-1.45956e-09
-1.48196e-09
-1.5034e-09
-1.52599e-09
-1.54796e-09
-1.56995e-09
-1.59201e-09
-1.61357e-09
-1.63548e-09
-1.65751e-09
-1.67954e-09
-1.70174e-09
-1.72392e-09
-1.74557e-09
-1.76809e-09
-1.79026e-09
-1.81253e-09
-1.83405e-09
-1.8558e-09
-1.87788e-09
-1.89928e-09
-1.92137e-09
-1.9433e-09
-1.96473e-09
-1.98656e-09
-2.00775e-09
-2.02947e-09
-2.0508e-09
-2.07205e-09
-2.09414e-09
-2.11514e-09
-2.13752e-09
-2.15989e-09
-2.18304e-09
-2.20742e-09
-2.23381e-09
-2.26293e-09
-2.29717e-09
-2.33851e-09
-2.38851e-09
-2.45303e-09
-2.53678e-09
-2.64959e-09
-2.80393e-09
-3.01806e-09
-3.31548e-09
-3.72592e-09
-4.29077e-09
-5.05929e-09
-5.95037e-09
-6.41362e-09
-9.0176e-09
-1.10437e-08
-6.99124e-10
1.46196e-09
-6.01024e-10
-7.42767e-10
-7.68212e-10
-7.99404e-10
-8.35754e-10
-8.73382e-10
-9.11241e-10
-9.47349e-10
-9.82579e-10
-1.01519e-09
-1.04524e-09
-1.07293e-09
-1.09897e-09
-1.1236e-09
-1.14766e-09
-1.1709e-09
-1.19434e-09
-1.21666e-09
-1.23837e-09
-1.26112e-09
-1.28414e-09
-1.30601e-09
-1.3286e-09
-1.35109e-09
-1.37309e-09
-1.39535e-09
-1.41715e-09
-1.43879e-09
-1.46097e-09
-1.48297e-09
-1.50569e-09
-1.52727e-09
-1.54939e-09
-1.57157e-09
-1.59394e-09
-1.61469e-09
-1.63633e-09
-1.65821e-09
-1.68024e-09
-1.70239e-09
-1.7249e-09
-1.74691e-09
-1.76959e-09
-1.7919e-09
-1.81397e-09
-1.83534e-09
-1.85723e-09
-1.87937e-09
-1.9009e-09
-1.92295e-09
-1.94394e-09
-1.96639e-09
-1.988e-09
-2.00963e-09
-2.03108e-09
-2.05229e-09
-2.07298e-09
-2.09577e-09
-2.11752e-09
-2.13879e-09
-2.16172e-09
-2.18509e-09
-2.20967e-09
-2.23613e-09
-2.26548e-09
-2.29962e-09
-2.34141e-09
-2.39054e-09
-2.45474e-09
-2.53838e-09
-2.65062e-09
-2.80353e-09
-3.01554e-09
-3.30867e-09
-3.71463e-09
-4.27287e-09
-5.03745e-09
-6.21845e-09
-9.68306e-09
-9.0672e-09
-1.09119e-08
-6.0842e-10
-1.63988e-09
-8.55126e-10
-7.5237e-10
-7.70219e-10
-8.01864e-10
-8.37361e-10
-8.74316e-10
-9.10983e-10
-9.47396e-10
-9.81348e-10
-1.01385e-09
-1.04347e-09
-1.07082e-09
-1.09682e-09
-1.12151e-09
-1.14541e-09
-1.16949e-09
-1.19235e-09
-1.21464e-09
-1.23812e-09
-1.26091e-09
-1.28234e-09
-1.30503e-09
-1.32683e-09
-1.34923e-09
-1.37112e-09
-1.39314e-09
-1.41497e-09
-1.43707e-09
-1.45918e-09
-1.48154e-09
-1.50325e-09
-1.52549e-09
-1.5477e-09
-1.56965e-09
-1.59182e-09
-1.61475e-09
-1.63634e-09
-1.65851e-09
-1.68023e-09
-1.70223e-09
-1.72496e-09
-1.7469e-09
-1.76811e-09
-1.79004e-09
-1.81148e-09
-1.83359e-09
-1.85543e-09
-1.87773e-09
-1.89925e-09
-1.92019e-09
-1.94307e-09
-1.96431e-09
-1.98619e-09
-2.00702e-09
-2.02922e-09
-2.05096e-09
-2.07302e-09
-2.09435e-09
-2.11594e-09
-2.13805e-09
-2.16025e-09
-2.18406e-09
-2.2086e-09
-2.23432e-09
-2.26468e-09
-2.29922e-09
-2.34053e-09
-2.39094e-09
-2.45518e-09
-2.53833e-09
-2.64967e-09
-2.80103e-09
-3.00956e-09
-3.29847e-09
-3.69775e-09
-4.24862e-09
-4.99717e-09
-5.89883e-09
-6.56646e-09
-8.89729e-09
-1.18171e-09
-9.05841e-10
-7.58906e-10
-7.70289e-10
-8.07433e-10
-8.42605e-10
-8.79482e-10
-9.15485e-10
-9.50874e-10
-9.84465e-10
-1.01588e-09
-1.04581e-09
-1.07337e-09
-1.10042e-09
-1.12464e-09
-1.14953e-09
-1.17213e-09
-1.19492e-09
-1.21776e-09
-1.24148e-09
-1.26356e-09
-1.28616e-09
-1.30829e-09
-1.32963e-09
-1.35171e-09
-1.37393e-09
-1.39609e-09
-1.41821e-09
-1.44052e-09
-1.46207e-09
-1.48431e-09
-1.50651e-09
-1.52835e-09
-1.55023e-09
-1.57243e-09
-1.59477e-09
-1.61754e-09
-1.64e-09
-1.66113e-09
-1.68306e-09
-1.70591e-09
-1.7277e-09
-1.74949e-09
-1.77058e-09
-1.79287e-09
-1.81567e-09
-1.83645e-09
-1.85882e-09
-1.88039e-09
-1.9019e-09
-1.92518e-09
-1.94626e-09
-1.96709e-09
-1.98926e-09
-2.01165e-09
-2.03236e-09
-2.05387e-09
-2.07563e-09
-2.09802e-09
-2.11843e-09
-2.14161e-09
-2.16378e-09
-2.18718e-09
-2.21168e-09
-2.23929e-09
-2.26864e-09
-2.30297e-09
-2.34393e-09
-2.39513e-09
-2.45733e-09
-2.53999e-09
-2.64889e-09
-2.79797e-09
-3.00193e-09
-3.28607e-09
-3.67757e-09
-4.22002e-09
-4.95003e-09
-5.79572e-09
-6.93653e-09
-2.54032e-12
-1.0889e-09
-7.48369e-10
-7.60884e-10
-8.00417e-10
-8.38184e-10
-8.75534e-10
-9.11219e-10
-9.48164e-10
-9.81994e-10
-1.01423e-09
-1.04369e-09
-1.07085e-09
-1.09654e-09
-1.12196e-09
-1.14485e-09
-1.1698e-09
-1.19291e-09
-1.21552e-09
-1.23888e-09
-1.26072e-09
-1.28219e-09
-1.30401e-09
-1.32744e-09
-1.35042e-09
-1.37147e-09
-1.39333e-09
-1.41559e-09
-1.43557e-09
-1.45961e-09
-1.48279e-09
-1.50389e-09
-1.52605e-09
-1.54862e-09
-1.57e-09
-1.59236e-09
-1.61574e-09
-1.63731e-09
-1.65896e-09
-1.68049e-09
-1.70284e-09
-1.72371e-09
-1.74682e-09
-1.76858e-09
-1.7905e-09
-1.81051e-09
-1.83441e-09
-1.85566e-09
-1.87882e-09
-1.89989e-09
-1.92097e-09
-1.94201e-09
-1.96535e-09
-1.98773e-09
-2.00823e-09
-2.03011e-09
-2.05179e-09
-2.0738e-09
-2.09422e-09
-2.11693e-09
-2.13943e-09
-2.16196e-09
-2.18545e-09
-2.21097e-09
-2.23466e-09
-2.26652e-09
-2.29935e-09
-2.3423e-09
-2.39137e-09
-2.45345e-09
-2.53413e-09
-2.64311e-09
-2.78905e-09
-2.99134e-09
-3.26944e-09
-3.65296e-09
-4.18635e-09
-4.90105e-09
-5.52398e-09
-8.03259e-09
-1.39079e-12
-7.75004e-10
-7.52068e-10
-7.77795e-10
-8.06439e-10
-8.42845e-10
-8.78882e-10
-9.14539e-10
-9.49051e-10
-9.81679e-10
-1.01209e-09
-1.04244e-09
-1.07046e-09
-1.09722e-09
-1.12211e-09
-1.14556e-09
-1.16951e-09
-1.19272e-09
-1.21715e-09
-1.23756e-09
-1.26051e-09
-1.28289e-09
-1.30505e-09
-1.32584e-09
-1.35008e-09
-1.37144e-09
-1.39393e-09
-1.41471e-09
-1.43719e-09
-1.46063e-09
-1.48138e-09
-1.50369e-09
-1.52461e-09
-1.54791e-09
-1.57025e-09
-1.59171e-09
-1.61299e-09
-1.63497e-09
-1.6577e-09
-1.67959e-09
-1.7005e-09
-1.72345e-09
-1.74499e-09
-1.76781e-09
-1.7904e-09
-1.81084e-09
-1.83381e-09
-1.85451e-09
-1.87702e-09
-1.89922e-09
-1.9201e-09
-1.9422e-09
-1.96352e-09
-1.98439e-09
-2.00543e-09
-2.02815e-09
-2.04759e-09
-2.06682e-09
-2.08828e-09
-2.11007e-09
-2.12949e-09
-2.14932e-09
-2.16986e-09
-2.19063e-09
-2.21134e-09
-2.23491e-09
-2.2602e-09
-2.28944e-09
-2.32773e-09
-2.37179e-09
-2.42831e-09
-2.50743e-09
-2.61429e-09
-2.76451e-09
-2.97383e-09
-3.27038e-09
-3.69859e-09
-4.30389e-09
-5.12333e-09
-7.15923e-09
-1.25737e-09
-1.41821e-09
-7.20913e-10
-7.49503e-10
-7.82085e-10
-8.14389e-10
-8.47698e-10
-8.82199e-10
-9.16768e-10
-9.49835e-10
-9.82962e-10
-1.01427e-09
-1.04362e-09
-1.07272e-09
-1.09854e-09
-1.12433e-09
-1.14855e-09
-1.1717e-09
-1.19478e-09
-1.21779e-09
-1.24023e-09
-1.26192e-09
-1.28496e-09
-1.30722e-09
-1.32989e-09
-1.35173e-09
-1.37337e-09
-1.39551e-09
-1.41818e-09
-1.43956e-09
-1.46202e-09
-1.48424e-09
-1.5055e-09
-1.52754e-09
-1.54977e-09
-1.57221e-09
-1.5933e-09
-1.61591e-09
-1.63818e-09
-1.65937e-09
-1.68159e-09
-1.70494e-09
-1.7256e-09
-1.74716e-09
-1.77059e-09
-1.79148e-09
-1.81362e-09
-1.83573e-09
-1.85759e-09
-1.88019e-09
-1.90027e-09
-1.92195e-09
-1.9443e-09
-1.96546e-09
-1.98698e-09
-2.00854e-09
-2.02855e-09
-2.05009e-09
-2.07123e-09
-2.09127e-09
-2.11185e-09
-2.13375e-09
-2.15299e-09
-2.17234e-09
-2.19389e-09
-2.2162e-09
-2.23916e-09
-2.26642e-09
-2.29912e-09
-2.33457e-09
-2.38134e-09
-2.44304e-09
-2.52387e-09
-2.63713e-09
-2.79491e-09
-3.01566e-09
-3.33057e-09
-3.77978e-09
-4.42049e-09
-5.3297e-09
-5.91482e-09
-7.63403e-09
-5.74539e-10
4.74275e-10
-6.66366e-10
-7.43254e-10
-7.77193e-10
-8.09574e-10
-8.42989e-10
-8.76822e-10
-9.1137e-10
-9.46197e-10
-9.7943e-10
-1.01218e-09
-1.04321e-09
-1.07046e-09
-1.09738e-09
-1.12263e-09
-1.14637e-09
-1.17061e-09
-1.19347e-09
-1.21578e-09
-1.23909e-09
-1.26107e-09
-1.28372e-09
-1.30608e-09
-1.32728e-09
-1.34944e-09
-1.37141e-09
-1.39418e-09
-1.41611e-09
-1.43839e-09
-1.46016e-09
-1.48079e-09
-1.50378e-09
-1.52633e-09
-1.54844e-09
-1.57029e-09
-1.59257e-09
-1.61423e-09
-1.63571e-09
-1.65822e-09
-1.68022e-09
-1.70279e-09
-1.72413e-09
-1.74627e-09
-1.76739e-09
-1.79049e-09
-1.81168e-09
-1.83454e-09
-1.85612e-09
-1.87791e-09
-1.89981e-09
-1.9203e-09
-1.94289e-09
-1.96452e-09
-1.98633e-09
-2.00655e-09
-2.02729e-09
-2.04822e-09
-2.06971e-09
-2.09072e-09
-2.11113e-09
-2.13092e-09
-2.15179e-09
-2.17249e-09
-2.1942e-09
-2.21624e-09
-2.24103e-09
-2.26753e-09
-2.30095e-09
-2.34032e-09
-2.38941e-09
-2.45302e-09
-2.54093e-09
-2.66078e-09
-2.82974e-09
-3.06501e-09
-3.39807e-09
-3.87061e-09
-4.5399e-09
-5.52565e-09
-7.96511e-09
-8.02736e-09
-9.31104e-09
-5.83552e-10
-6.41478e-10
-6.7962e-10
-7.40248e-10
-7.71884e-10
-8.04957e-10
-8.39456e-10
-8.733e-10
-9.10569e-10
-9.45479e-10
-9.79472e-10
-1.01277e-09
-1.041e-09
-1.07095e-09
-1.09808e-09
-1.12245e-09
-1.1477e-09
-1.16973e-09
-1.19418e-09
-1.21655e-09
-1.23877e-09
-1.26094e-09
-1.2824e-09
-1.30679e-09
-1.32912e-09
-1.35005e-09
-1.37173e-09
-1.39284e-09
-1.41678e-09
-1.43911e-09
-1.46049e-09
-1.48126e-09
-1.50398e-09
-1.52728e-09
-1.54966e-09
-1.57104e-09
-1.59067e-09
-1.61479e-09
-1.63652e-09
-1.65707e-09
-1.67868e-09
-1.70305e-09
-1.72383e-09
-1.74616e-09
-1.76954e-09
-1.78882e-09
-1.81176e-09
-1.83505e-09
-1.85671e-09
-1.87851e-09
-1.89804e-09
-1.92135e-09
-1.94339e-09
-1.96569e-09
-1.98435e-09
-2.00735e-09
-2.02874e-09
-2.04858e-09
-2.07088e-09
-2.08952e-09
-2.1118e-09
-2.13239e-09
-2.15208e-09
-2.17397e-09
-2.19429e-09
-2.21907e-09
-2.24326e-09
-2.27154e-09
-2.30549e-09
-2.34519e-09
-2.39708e-09
-2.46593e-09
-2.5576e-09
-2.68494e-09
-2.86342e-09
-3.11127e-09
-3.46169e-09
-3.95507e-09
-4.64846e-09
-5.64599e-09
-7.00188e-09
-8.16029e-09
-9.69081e-09
-6.25851e-10
-4.71748e-10
-6.37964e-10
-7.36099e-10
-7.67904e-10
-8.03518e-10
-8.41274e-10
-8.79832e-10
-9.14871e-10
-9.5046e-10
-9.84162e-10
-1.01476e-09
-1.04656e-09
-1.07256e-09
-1.09908e-09
-1.12549e-09
-1.14844e-09
-1.17375e-09
-1.19505e-09
-1.21733e-09
-1.24009e-09
-1.26309e-09
-1.2875e-09
-1.30759e-09
-1.32964e-09
-1.35106e-09
-1.37521e-09
-1.3978e-09
-1.41719e-09
-1.43991e-09
-1.46204e-09
-1.48566e-09
-1.50719e-09
-1.52827e-09
-1.54921e-09
-1.57242e-09
-1.59712e-09
-1.6156e-09
-1.6384e-09
-1.66103e-09
-1.68388e-09
-1.70464e-09
-1.72739e-09
-1.74725e-09
-1.77043e-09
-1.79461e-09
-1.81571e-09
-1.83551e-09
-1.85721e-09
-1.87977e-09
-1.90368e-09
-1.92433e-09
-1.94455e-09
-1.96564e-09
-1.9897e-09
-2.0082e-09
-2.02978e-09
-2.05251e-09
-2.07217e-09
-2.09476e-09
-2.11307e-09
-2.13412e-09
-2.15607e-09
-2.17614e-09
-2.20071e-09
-2.22193e-09
-2.24747e-09
-2.27859e-09
-2.31177e-09
-2.35708e-09
-2.41217e-09
-2.48362e-09
-2.58113e-09
-2.71555e-09
-2.90242e-09
-3.16365e-09
-3.52986e-09
-4.04037e-09
-4.752e-09
-5.81554e-09
-7.31985e-09
-8.34055e-09
-1.03831e-08
-6.9652e-10
-1.29585e-09
-7.41306e-10
-7.4714e-10
-7.72316e-10
-8.10684e-10
-8.48964e-10
-8.86653e-10
-9.21974e-10
-9.55999e-10
-9.88839e-10
-1.02103e-09
-1.04905e-09
-1.07638e-09
-1.10241e-09
-1.12716e-09
-1.1511e-09
-1.17465e-09
-1.19778e-09
-1.22228e-09
-1.24273e-09
-1.26701e-09
-1.28838e-09
-1.31005e-09
-1.33242e-09
-1.35498e-09
-1.37617e-09
-1.39892e-09
-1.42158e-09
-1.44246e-09
-1.46397e-09
-1.48634e-09
-1.50996e-09
-1.53084e-09
-1.55432e-09
-1.57451e-09
-1.59833e-09
-1.62107e-09
-1.64157e-09
-1.66575e-09
-1.68697e-09
-1.7096e-09
-1.73171e-09
-1.75292e-09
-1.77394e-09
-1.79603e-09
-1.81665e-09
-1.84042e-09
-1.86151e-09
-1.88217e-09
-1.90491e-09
-1.92564e-09
-1.94637e-09
-1.97078e-09
-1.99026e-09
-2.01266e-09
-2.03234e-09
-2.05362e-09
-2.07499e-09
-2.0956e-09
-2.11754e-09
-2.13814e-09
-2.1603e-09
-2.17991e-09
-2.20301e-09
-2.22545e-09
-2.25403e-09
-2.28351e-09
-2.32207e-09
-2.36846e-09
-2.42511e-09
-2.501e-09
-2.6028e-09
-2.74194e-09
-2.93569e-09
-3.20565e-09
-3.58445e-09
-4.11095e-09
-4.83638e-09
-5.8293e-09
-6.64331e-09
-8.49532e-09
-1.05749e-08
-7.15125e-10
-1.34966e-09
-7.69932e-10
-7.486e-10
-7.74569e-10
-8.11311e-10
-8.49104e-10
-8.86117e-10
-9.21612e-10
-9.5463e-10
-9.87623e-10
-1.01899e-09
-1.04797e-09
-1.0749e-09
-1.10074e-09
-1.12567e-09
-1.14904e-09
-1.17267e-09
-1.19571e-09
-1.21946e-09
-1.24092e-09
-1.26453e-09
-1.2851e-09
-1.30791e-09
-1.33022e-09
-1.35175e-09
-1.37493e-09
-1.39624e-09
-1.41807e-09
-1.44049e-09
-1.46265e-09
-1.48561e-09
-1.50749e-09
-1.52991e-09
-1.55093e-09
-1.574e-09
-1.59596e-09
-1.61901e-09
-1.64018e-09
-1.66348e-09
-1.68527e-09
-1.70762e-09
-1.72963e-09
-1.75108e-09
-1.77201e-09
-1.79381e-09
-1.8152e-09
-1.83769e-09
-1.85874e-09
-1.87982e-09
-1.90213e-09
-1.92421e-09
-1.94514e-09
-1.96746e-09
-1.98872e-09
-2.00929e-09
-2.03101e-09
-2.05222e-09
-2.07266e-09
-2.09534e-09
-2.11535e-09
-2.1367e-09
-2.1587e-09
-2.17918e-09
-2.20202e-09
-2.22649e-09
-2.2543e-09
-2.28672e-09
-2.32406e-09
-2.37159e-09
-2.43103e-09
-2.5092e-09
-2.61433e-09
-2.75818e-09
-2.95739e-09
-3.23518e-09
-3.62402e-09
-4.16322e-09
-4.90137e-09
-5.881e-09
-6.68471e-09
-8.62396e-09
-1.07339e-08
-7.0741e-10
-9.15023e-10
-6.84579e-10
-7.43199e-10
-7.74793e-10
-8.11531e-10
-8.48841e-10
-8.85687e-10
-9.21269e-10
-9.5476e-10
-9.87775e-10
-1.01953e-09
-1.04995e-09
-1.07713e-09
-1.10288e-09
-1.12787e-09
-1.15136e-09
-1.17519e-09
-1.19778e-09
-1.21966e-09
-1.24276e-09
-1.26485e-09
-1.28733e-09
-1.30978e-09
-1.33227e-09
-1.35403e-09
-1.37669e-09
-1.3986e-09
-1.42061e-09
-1.44232e-09
-1.46451e-09
-1.4861e-09
-1.50845e-09
-1.53026e-09
-1.55302e-09
-1.5742e-09
-1.59619e-09
-1.61803e-09
-1.64002e-09
-1.66236e-09
-1.68444e-09
-1.70669e-09
-1.72888e-09
-1.75031e-09
-1.77191e-09
-1.79437e-09
-1.81742e-09
-1.83791e-09
-1.86061e-09
-1.88193e-09
-1.90264e-09
-1.92609e-09
-1.94685e-09
-1.96935e-09
-1.99072e-09
-2.01177e-09
-2.03288e-09
-2.05431e-09
-2.07492e-09
-2.09604e-09
-2.1174e-09
-2.13898e-09
-2.15961e-09
-2.18207e-09
-2.20565e-09
-2.23003e-09
-2.25801e-09
-2.29149e-09
-2.33011e-09
-2.37726e-09
-2.43817e-09
-2.51789e-09
-2.62516e-09
-2.77213e-09
-2.97615e-09
-3.25957e-09
-3.65583e-09
-4.20654e-09
-4.9619e-09
-6.02438e-09
-7.20559e-09
-9.21883e-09
-1.08801e-08
-7.12233e-10
-1.43079e-09
-8.13419e-10
-7.4643e-10
-7.73533e-10
-8.10409e-10
-8.47688e-10
-8.84485e-10
-9.19921e-10
-9.537e-10
-9.86918e-10
-1.0189e-09
-1.04898e-09
-1.07666e-09
-1.1023e-09
-1.12628e-09
-1.15026e-09
-1.17377e-09
-1.19659e-09
-1.21965e-09
-1.24149e-09
-1.26459e-09
-1.28657e-09
-1.30892e-09
-1.33136e-09
-1.35271e-09
-1.37555e-09
-1.39657e-09
-1.41971e-09
-1.44109e-09
-1.46347e-09
-1.48544e-09
-1.50779e-09
-1.52971e-09
-1.55158e-09
-1.57297e-09
-1.59513e-09
-1.61695e-09
-1.63931e-09
-1.66141e-09
-1.68353e-09
-1.70571e-09
-1.72791e-09
-1.74922e-09
-1.7707e-09
-1.7933e-09
-1.81588e-09
-1.83736e-09
-1.85955e-09
-1.88134e-09
-1.9026e-09
-1.92493e-09
-1.94585e-09
-1.96853e-09
-1.98932e-09
-2.01116e-09
-2.03202e-09
-2.05311e-09
-2.07438e-09
-2.09587e-09
-2.11717e-09
-2.13857e-09
-2.15997e-09
-2.18198e-09
-2.20496e-09
-2.23072e-09
-2.25973e-09
-2.2929e-09
-2.33238e-09
-2.38123e-09
-2.4433e-09
-2.52483e-09
-2.63426e-09
-2.78407e-09
-2.99157e-09
-3.27999e-09
-3.68232e-09
-4.23968e-09
-5.00345e-09
-5.97407e-09
-6.75112e-09
-9.22768e-09
-1.10032e-08
-6.35973e-10
-3.88431e-10
-6.66258e-10
-7.40626e-10
-7.73881e-10
-8.09821e-10
-8.46959e-10
-8.83593e-10
-9.19197e-10
-9.53253e-10
-9.86548e-10
-1.01893e-09
-1.04918e-09
-1.07687e-09
-1.10241e-09
-1.12714e-09
-1.15117e-09
-1.1738e-09
-1.19725e-09
-1.21982e-09
-1.2415e-09
-1.26466e-09
-1.28663e-09
-1.30924e-09
-1.33119e-09
-1.35323e-09
-1.37557e-09
-1.39751e-09
-1.41952e-09
-1.44161e-09
-1.4636e-09
-1.48546e-09
-1.50763e-09
-1.52953e-09
-1.55078e-09
-1.57263e-09
-1.59473e-09
-1.61649e-09
-1.63899e-09
-1.66114e-09
-1.6832e-09
-1.70536e-09
-1.72754e-09
-1.74862e-09
-1.7702e-09
-1.79276e-09
-1.81546e-09
-1.83727e-09
-1.85948e-09
-1.88116e-09
-1.90282e-09
-1.92499e-09
-1.94678e-09
-1.96837e-09
-1.98958e-09
-2.01107e-09
-2.03248e-09
-2.054e-09
-2.0748e-09
-2.0966e-09
-2.11762e-09
-2.13919e-09
-2.16073e-09
-2.1833e-09
-2.20738e-09
-2.23258e-09
-2.2619e-09
-2.29512e-09
-2.33541e-09
-2.38518e-09
-2.44812e-09
-2.53083e-09
-2.64196e-09
-2.79404e-09
-3.0042e-09
-3.29624e-09
-3.70283e-09
-4.26565e-09
-5.03992e-09
-6.14868e-09
-7.80385e-09
-9.409e-09
-1.1098e-08
-6.79849e-10
-9.5495e-10
-7.49861e-10
-7.42927e-10
-7.73572e-10
-8.09463e-10
-8.46606e-10
-8.83286e-10
-9.18855e-10
-9.52953e-10
-9.86305e-10
-1.01873e-09
-1.04914e-09
-1.0768e-09
-1.10219e-09
-1.12689e-09
-1.15104e-09
-1.17377e-09
-1.19669e-09
-1.21975e-09
-1.24143e-09
-1.26452e-09
-1.28639e-09
-1.3091e-09
-1.33102e-09
-1.35323e-09
-1.37511e-09
-1.39711e-09
-1.41942e-09
-1.44145e-09
-1.46335e-09
-1.48522e-09
-1.50724e-09
-1.52908e-09
-1.55039e-09
-1.57243e-09
-1.59465e-09
-1.61637e-09
-1.63889e-09
-1.66109e-09
-1.68313e-09
-1.70525e-09
-1.72733e-09
-1.74841e-09
-1.76997e-09
-1.79253e-09
-1.81498e-09
-1.83686e-09
-1.85923e-09
-1.88121e-09
-1.90274e-09
-1.92472e-09
-1.94659e-09
-1.96836e-09
-1.98966e-09
-2.01101e-09
-2.03265e-09
-2.05383e-09
-2.07524e-09
-2.09657e-09
-2.1181e-09
-2.1395e-09
-2.16119e-09
-2.18433e-09
-2.20823e-09
-2.23407e-09
-2.26344e-09
-2.29725e-09
-2.33803e-09
-2.38853e-09
-2.45206e-09
-2.53584e-09
-2.64818e-09
-2.80177e-09
-3.0139e-09
-3.30834e-09
-3.71748e-09
-4.28366e-09
-5.0602e-09
-6.08766e-09
-7.25947e-09
-9.38355e-09
-1.11568e-08
-6.87884e-10
-9.94608e-10
-7.53544e-10
-7.43011e-10
-7.73521e-10
-8.09472e-10
-8.46607e-10
-8.83281e-10
-9.18881e-10
-9.5294e-10
-9.86284e-10
-1.01874e-09
-1.04909e-09
-1.07687e-09
-1.10218e-09
-1.12679e-09
-1.15078e-09
-1.17378e-09
-1.19662e-09
-1.21976e-09
-1.24148e-09
-1.2645e-09
-1.28643e-09
-1.30902e-09
-1.33094e-09
-1.35324e-09
-1.3749e-09
-1.39723e-09
-1.41934e-09
-1.44154e-09
-1.46344e-09
-1.48525e-09
-1.50711e-09
-1.52913e-09
-1.55031e-09
-1.57231e-09
-1.59469e-09
-1.61626e-09
-1.63886e-09
-1.66104e-09
-1.68317e-09
-1.70514e-09
-1.72727e-09
-1.74843e-09
-1.77003e-09
-1.7926e-09
-1.81492e-09
-1.83686e-09
-1.85929e-09
-1.88122e-09
-1.90299e-09
-1.92469e-09
-1.94672e-09
-1.96837e-09
-1.98977e-09
-2.01103e-09
-2.03279e-09
-2.05393e-09
-2.07551e-09
-2.09701e-09
-2.11846e-09
-2.14008e-09
-2.16192e-09
-2.18513e-09
-2.20928e-09
-2.23549e-09
-2.26478e-09
-2.29917e-09
-2.34042e-09
-2.3914e-09
-2.45557e-09
-2.53991e-09
-2.65303e-09
-2.80747e-09
-3.02051e-09
-3.31593e-09
-3.72603e-09
-4.29323e-09
-5.07091e-09
-6.10161e-09
-7.31108e-09
-9.40392e-09
-1.11802e-08
-6.30418e-10
-4.30596e-10
-6.64764e-10
-7.41113e-10
-7.7369e-10
-8.09927e-10
-8.46945e-10
-8.83621e-10
-9.19158e-10
-9.53188e-10
-9.86606e-10
-1.01889e-09
-1.04916e-09
-1.07694e-09
-1.10228e-09
-1.12696e-09
-1.15045e-09
-1.17375e-09
-1.19679e-09
-1.21968e-09
-1.24163e-09
-1.26451e-09
-1.28669e-09
-1.30888e-09
-1.33093e-09
-1.3533e-09
-1.37526e-09
-1.39734e-09
-1.41942e-09
-1.44155e-09
-1.46376e-09
-1.48527e-09
-1.50744e-09
-1.52935e-09
-1.55054e-09
-1.57244e-09
-1.59491e-09
-1.61627e-09
-1.63871e-09
-1.66086e-09
-1.68307e-09
-1.70517e-09
-1.72717e-09
-1.74859e-09
-1.77021e-09
-1.79294e-09
-1.81524e-09
-1.83723e-09
-1.85976e-09
-1.88138e-09
-1.90336e-09
-1.92486e-09
-1.94703e-09
-1.9687e-09
-1.99028e-09
-2.0114e-09
-2.03297e-09
-2.05424e-09
-2.07609e-09
-2.09768e-09
-2.11905e-09
-2.14079e-09
-2.16292e-09
-2.18597e-09
-2.21024e-09
-2.23682e-09
-2.26663e-09
-2.30078e-09
-2.34256e-09
-2.39373e-09
-2.45841e-09
-2.54304e-09
-2.65649e-09
-2.81109e-09
-3.02399e-09
-3.319e-09
-3.72837e-09
-4.29438e-09
-5.07226e-09
-6.18549e-09
-7.86994e-09
-9.43343e-09
-1.11614e-08
-7.35746e-10
-1.41886e-09
-7.99647e-10
-7.45581e-10
-7.73887e-10
-8.10356e-10
-8.47644e-10
-8.84499e-10
-9.19924e-10
-9.537e-10
-9.86843e-10
-1.01891e-09
-1.04892e-09
-1.07673e-09
-1.102e-09
-1.12688e-09
-1.15033e-09
-1.17358e-09
-1.19648e-09
-1.21959e-09
-1.24171e-09
-1.26429e-09
-1.28672e-09
-1.30867e-09
-1.33106e-09
-1.35304e-09
-1.37521e-09
-1.39717e-09
-1.41938e-09
-1.44107e-09
-1.46326e-09
-1.48516e-09
-1.50741e-09
-1.52938e-09
-1.55114e-09
-1.57284e-09
-1.59561e-09
-1.61659e-09
-1.63885e-09
-1.66106e-09