/*--------------------------------*- C++ -*----------------------------------*\
| =========                 |                                                 |
| \\      /  F ield         | OpenFOAM: The Open Source CFD Toolbox           |
|  \\    /   O peration     | Version:  v1906                                 |
|   \\  /    A nd           | Web:      www.OpenFOAM.com                      |
|    \\/     M anipulation  |                                                 |
\*---------------------------------------------------------------------------*/
FoamFile
{
    version     2.0;
    format      ascii;
    class       volScalarField;
    location    "22.5";
    object      p;
}
// * * * * * * * * * * * * * * * * * * * * * * * * * * * * * * * * * * * * * //

dimensions      [0 2 -2 0 0 0 0];


internalField   nonuniform List<scalar> 
243374
(
1.0212e-14
-3.98622e-11
-5.94311e-11
-8.24182e-11
-1.05093e-10
-1.27443e-10
-1.49672e-10
-1.71769e-10
-1.93838e-10
-2.15861e-10
-2.37861e-10
-2.59873e-10
-2.81884e-10
-3.03864e-10
-3.25869e-10
-3.47843e-10
-3.6987e-10
-3.91874e-10
-4.13878e-10
-4.35889e-10
-4.57917e-10
-4.79899e-10
-5.01893e-10
-5.23921e-10
-5.45922e-10
-5.67927e-10
-5.89935e-10
-6.11946e-10
-6.33946e-10
-6.55961e-10
-6.77969e-10
-6.99972e-10
-7.21979e-10
-7.43991e-10
-7.66011e-10
-7.88008e-10
-8.1e-10
-8.32018e-10
-8.5404e-10
-8.76032e-10
-8.98034e-10
-9.20065e-10
-9.42058e-10
-9.64072e-10
-9.86076e-10
-1.0081e-09
-1.0301e-09
-1.05211e-09
-1.07414e-09
-1.09616e-09
-1.11818e-09
-1.1402e-09
-1.16223e-09
-1.18425e-09
-1.20631e-09
-1.22836e-09
-1.25043e-09
-1.27252e-09
-1.29463e-09
-1.31678e-09
-1.339e-09
-1.36126e-09
-1.38362e-09
-1.40609e-09
-1.42873e-09
-1.45159e-09
-1.47477e-09
-1.49837e-09
-1.52256e-09
-1.54756e-09
-1.57372e-09
-1.60138e-09
-1.63116e-09
-1.66384e-09
-1.70047e-09
-1.74242e-09
-1.79145e-09
-1.84953e-09
-1.91373e-09
-2.01948e-09
-1.40246e-11
-4.04507e-11
-5.98027e-11
-8.25941e-11
-1.05188e-10
-1.27511e-10
-1.49716e-10
-1.71816e-10
-1.93852e-10
-2.1588e-10
-2.37897e-10
-2.5989e-10
-2.81878e-10
-3.03876e-10
-3.25871e-10
-3.47891e-10
-3.69883e-10
-3.9188e-10
-4.13907e-10
-4.35893e-10
-4.57901e-10
-4.79936e-10
-5.01922e-10
-5.23913e-10
-5.4594e-10
-5.67948e-10
-5.8995e-10
-6.11954e-10
-6.33959e-10
-6.55962e-10
-6.77979e-10
-6.99987e-10
-7.21995e-10
-7.44002e-10
-7.66013e-10
-7.88015e-10
-8.10026e-10
-8.32028e-10
-8.54043e-10
-8.7605e-10
-8.98055e-10
-9.20067e-10
-9.42074e-10
-9.64087e-10
-9.86081e-10
-1.00811e-09
-1.03013e-09
-1.05213e-09
-1.07415e-09
-1.09618e-09
-1.11818e-09
-1.14021e-09
-1.16223e-09
-1.18428e-09
-1.20631e-09
-1.22838e-09
-1.25044e-09
-1.27252e-09
-1.29464e-09
-1.31679e-09
-1.33898e-09
-1.36125e-09
-1.3836e-09
-1.40609e-09
-1.42871e-09
-1.45158e-09
-1.47478e-09
-1.49837e-09
-1.52259e-09
-1.54763e-09
-1.57381e-09
-1.60156e-09
-1.63145e-09
-1.66431e-09
-1.70113e-09
-1.74331e-09
-1.7926e-09
-1.85106e-09
-1.91674e-09
-2.00779e-09
-3.03612e-11
-4.06017e-11
-6.00277e-11
-8.26868e-11
-1.05229e-10
-1.27521e-10
-1.49695e-10
-1.71803e-10
-1.93865e-10
-2.15878e-10
-2.3787e-10
-2.59881e-10
-2.81876e-10
-3.03869e-10
-3.25864e-10
-3.47855e-10
-3.69866e-10
-3.91876e-10
-4.13866e-10
-4.35892e-10
-4.57909e-10
-4.79873e-10
-5.01896e-10
-5.23934e-10
-5.45923e-10
-5.67927e-10
-5.89941e-10
-6.11936e-10
-6.33947e-10
-6.55954e-10
-6.77955e-10
-6.9997e-10
-7.21989e-10
-7.43999e-10
-7.65998e-10
-7.88002e-10
-8.10006e-10
-8.32018e-10
-8.54041e-10
-8.76029e-10
-8.98051e-10
-9.20063e-10
-9.42058e-10
-9.64063e-10
-9.86087e-10
-1.00809e-09
-1.0301e-09
-1.05213e-09
-1.07412e-09
-1.09613e-09
-1.11817e-09
-1.14019e-09
-1.16223e-09
-1.18424e-09
-1.20629e-09
-1.22832e-09
-1.25042e-09
-1.27249e-09
-1.2946e-09
-1.31676e-09
-1.33896e-09
-1.36121e-09
-1.38357e-09
-1.40601e-09
-1.42866e-09
-1.45153e-09
-1.47468e-09
-1.49833e-09
-1.52253e-09
-1.54758e-09
-1.57379e-09
-1.6016e-09
-1.63152e-09
-1.66451e-09
-1.70148e-09
-1.74386e-09
-1.79339e-09
-1.85199e-09
-1.91838e-09
-1.99303e-09
1.28786e-10
-2.0291e-11
-3.79928e-11
-6.00549e-11
-8.27352e-11
-1.05263e-10
-1.27531e-10
-1.49775e-10
-1.7182e-10
-1.93842e-10
-2.15879e-10
-2.37917e-10
-2.59879e-10
-2.81902e-10
-3.03866e-10
-3.25869e-10
-3.47864e-10
-3.69881e-10
-3.91866e-10
-4.13919e-10
-4.35909e-10
-4.57893e-10
-4.79938e-10
-5.01909e-10
-5.23884e-10
-5.45925e-10
-5.67932e-10
-5.8995e-10
-6.1196e-10
-6.33952e-10
-6.5598e-10
-6.77991e-10
-6.99974e-10
-7.21966e-10
-7.43986e-10
-7.6603e-10
-7.87999e-10
-8.10025e-10
-8.32018e-10
-8.54019e-10
-8.76031e-10
-8.98051e-10
-9.20055e-10
-9.42058e-10
-9.64106e-10
-9.86059e-10
-1.00811e-09
-1.03012e-09
-1.05208e-09
-1.07415e-09
-1.09619e-09
-1.11816e-09
-1.14018e-09
-1.16219e-09
-1.18426e-09
-1.20629e-09
-1.22839e-09
-1.25041e-09
-1.27251e-09
-1.29462e-09
-1.31672e-09
-1.33893e-09
-1.36118e-09
-1.38351e-09
-1.40602e-09
-1.42862e-09
-1.45146e-09
-1.47469e-09
-1.49825e-09
-1.52249e-09
-1.54755e-09
-1.57377e-09
-1.60159e-09
-1.63164e-09
-1.66463e-09
-1.70172e-09
-1.74424e-09
-1.79397e-09
-1.85289e-09
-1.92258e-09
-2.00181e-09
-2.09815e-09
1.16804e-10
-2.88408e-11
-3.90166e-11
-6.00959e-11
-8.2773e-11
-1.05283e-10
-1.27548e-10
-1.49696e-10
-1.71839e-10
-1.93876e-10
-2.15879e-10
-2.37895e-10
-2.59875e-10
-2.81857e-10
-3.03894e-10
-3.25866e-10
-3.47903e-10
-3.69844e-10
-3.91894e-10
-4.13851e-10
-4.35858e-10
-4.57877e-10
-4.79866e-10
-5.01906e-10
-5.23956e-10
-5.45927e-10
-5.67942e-10
-5.89934e-10
-6.1193e-10
-6.3395e-10
-6.55933e-10
-6.7796e-10
-6.99967e-10
-7.21984e-10
-7.44013e-10
-7.65986e-10
-7.88008e-10
-8.10007e-10
-8.32006e-10
-8.5402e-10
-8.76033e-10
-8.98043e-10
-9.20046e-10
-9.42052e-10
-9.64062e-10
-9.86088e-10
-1.00809e-09
-1.03006e-09
-1.05216e-09
-1.07412e-09
-1.09611e-09
-1.11817e-09
-1.14021e-09
-1.16224e-09
-1.18425e-09
-1.20627e-09
-1.22828e-09
-1.25039e-09
-1.27243e-09
-1.29455e-09
-1.31676e-09
-1.3389e-09
-1.36117e-09
-1.38351e-09
-1.40593e-09
-1.42854e-09
-1.45143e-09
-1.47454e-09
-1.4982e-09
-1.5224e-09
-1.54745e-09
-1.57367e-09
-1.60153e-09
-1.63152e-09
-1.66464e-09
-1.70181e-09
-1.74441e-09
-1.79426e-09
-1.85338e-09
-1.92239e-09
-1.99601e-09
-2.1106e-09
-2.29157e-09
1.11564e-10
-1.96042e-11
-3.73387e-11
-6.00132e-11
-8.27977e-11
-1.0526e-10
-1.27557e-10
-1.49797e-10
-1.71819e-10
-1.93861e-10
-2.15879e-10
-2.37893e-10
-2.59905e-10
-2.81895e-10
-3.03847e-10
-3.25897e-10
-3.47817e-10
-3.69898e-10
-3.9185e-10
-4.13896e-10
-4.35923e-10
-4.57916e-10
-4.79936e-10
-5.01908e-10
-5.23865e-10
-5.45932e-10
-5.67909e-10
-5.89934e-10
-6.11953e-10
-6.33939e-10
-6.55965e-10
-6.77976e-10
-7.00001e-10
-7.21984e-10
-7.43976e-10
-7.65996e-10
-7.87986e-10
-8.10001e-10
-8.32011e-10
-8.5402e-10
-8.7602e-10
-8.98045e-10
-9.20046e-10
-9.42058e-10
-9.64064e-10
-9.86073e-10
-1.00809e-09
-1.03012e-09
-1.05206e-09
-1.07414e-09
-1.09617e-09
-1.11817e-09
-1.14014e-09
-1.16217e-09
-1.18422e-09
-1.20628e-09
-1.22835e-09
-1.25038e-09
-1.27247e-09
-1.29458e-09
-1.31665e-09
-1.3389e-09
-1.3611e-09
-1.38343e-09
-1.4059e-09
-1.42851e-09
-1.45133e-09
-1.47451e-09
-1.49809e-09
-1.5223e-09
-1.54732e-09
-1.57354e-09
-1.60138e-09
-1.63144e-09
-1.66451e-09
-1.70167e-09
-1.74435e-09
-1.79428e-09
-1.85356e-09
-1.92435e-09
-2.00485e-09
-2.11752e-09
-2.28876e-09
1.06697e-10
-2.48256e-11
-3.80631e-11
-6.00696e-11
-8.27868e-11
-1.05314e-10
-1.27556e-10
-1.49727e-10
-1.71842e-10
-1.93841e-10
-2.15925e-10
-2.37893e-10
-2.59835e-10
-2.81898e-10
-3.03899e-10
-3.25842e-10
-3.47893e-10
-3.69858e-10
-3.91914e-10
-4.13891e-10
-4.35856e-10
-4.57864e-10
-4.79867e-10
-5.01906e-10
-5.23935e-10
-5.45934e-10
-5.67944e-10
-5.89934e-10
-6.11946e-10
-6.33958e-10
-6.5595e-10
-6.77956e-10
-6.9993e-10
-7.21973e-10
-7.44e-10
-7.66007e-10
-7.87989e-10
-8.09999e-10
-8.32006e-10
-8.54004e-10
-8.76022e-10
-8.98015e-10
-9.20042e-10
-9.42029e-10
-9.64063e-10
-9.86063e-10
-1.00808e-09
-1.03006e-09
-1.05216e-09
-1.07414e-09
-1.09612e-09
-1.11813e-09
-1.14019e-09
-1.16222e-09
-1.18424e-09
-1.20624e-09
-1.2283e-09
-1.25038e-09
-1.27241e-09
-1.29451e-09
-1.31671e-09
-1.33882e-09
-1.36108e-09
-1.3834e-09
-1.40584e-09
-1.42841e-09
-1.45127e-09
-1.47438e-09
-1.49799e-09
-1.52215e-09
-1.54718e-09
-1.57335e-09
-1.60116e-09
-1.63117e-09
-1.66426e-09
-1.70145e-09
-1.74407e-09
-1.794e-09
-1.85331e-09
-1.92355e-09
-2.00042e-09
-2.11863e-09
-2.28701e-09
1.04675e-10
-2.48008e-11
-3.8053e-11
-6.00535e-11
-8.27883e-11
-1.05267e-10
-1.27577e-10
-1.49747e-10
-1.71836e-10
-1.93899e-10
-2.15851e-10
-2.37896e-10
-2.59918e-10
-2.81844e-10
-3.03865e-10
-3.25885e-10
-3.47817e-10
-3.69863e-10
-3.9185e-10
-4.1386e-10
-4.35918e-10
-4.5792e-10
-4.79932e-10
-5.019e-10
-5.23894e-10
-5.45892e-10
-5.67911e-10
-5.89941e-10
-6.11928e-10
-6.33927e-10
-6.55959e-10
-6.77965e-10
-6.99999e-10
-7.21993e-10
-7.43937e-10
-7.65999e-10
-7.87989e-10
-8.10002e-10
-8.32019e-10
-8.54022e-10
-8.76025e-10
-8.98041e-10
-9.2004e-10
-9.42055e-10
-9.64062e-10
-9.86058e-10
-1.0081e-09
-1.03011e-09
-1.05206e-09
-1.0741e-09
-1.09615e-09
-1.11816e-09
-1.14016e-09
-1.16217e-09
-1.18421e-09
-1.20627e-09
-1.22829e-09
-1.25033e-09
-1.27243e-09
-1.29452e-09
-1.3166e-09
-1.33882e-09
-1.36103e-09
-1.38336e-09
-1.40579e-09
-1.42837e-09
-1.45116e-09
-1.47428e-09
-1.4978e-09
-1.52199e-09
-1.54694e-09
-1.57314e-09
-1.60087e-09
-1.63086e-09
-1.66387e-09
-1.70097e-09
-1.74357e-09
-1.79344e-09
-1.85269e-09
-1.92278e-09
-1.99964e-09
-2.11812e-09
-2.28604e-09
1.05369e-10
-1.9937e-11
-3.74064e-11
-6.00374e-11
-8.27875e-11
-1.05302e-10
-1.27536e-10
-1.49765e-10
-1.71826e-10
-1.93818e-10
-2.15926e-10
-2.37896e-10
-2.5984e-10
-2.81925e-10
-3.03866e-10
-3.25878e-10
-3.47856e-10
-3.69887e-10
-3.91918e-10
-4.13905e-10
-4.35864e-10
-4.57879e-10
-4.79879e-10
-5.01906e-10
-5.23895e-10
-5.4593e-10
-5.67942e-10
-5.89923e-10
-6.11967e-10
-6.33969e-10
-6.55955e-10
-6.77958e-10
-6.9995e-10
-7.21945e-10
-7.44044e-10
-7.65989e-10
-7.87995e-10
-8.10001e-10
-8.32015e-10
-8.53995e-10
-8.76031e-10
-8.98034e-10
-9.2004e-10
-9.4205e-10
-9.64062e-10
-9.86078e-10
-1.00807e-09
-1.03009e-09
-1.05213e-09
-1.07416e-09
-1.09613e-09
-1.11814e-09
-1.14016e-09
-1.1622e-09
-1.18422e-09
-1.20623e-09
-1.22829e-09
-1.25035e-09
-1.27239e-09
-1.29449e-09
-1.31666e-09
-1.33878e-09
-1.36101e-09
-1.38329e-09
-1.40569e-09
-1.42828e-09
-1.4511e-09
-1.47417e-09
-1.49773e-09
-1.52179e-09
-1.54675e-09
-1.57282e-09
-1.60055e-09
-1.63043e-09
-1.66336e-09
-1.70037e-09
-1.74284e-09
-1.79256e-09
-1.85167e-09
-1.92227e-09
-2.00309e-09
-2.11626e-09
-2.28557e-09
1.09026e-10
-2.86527e-11
-3.90125e-11
-6.01095e-11
-8.27724e-11
-1.05247e-10
-1.27586e-10
-1.49684e-10
-1.71835e-10
-1.93881e-10
-2.15845e-10
-2.37903e-10
-2.59923e-10
-2.81816e-10
-3.03879e-10
-3.25857e-10
-3.47856e-10
-3.69831e-10
-3.91847e-10
-4.13858e-10
-4.35904e-10
-4.57885e-10
-4.79918e-10
-5.01902e-10
-5.23911e-10
-5.45915e-10
-5.679e-10
-5.89938e-10
-6.11912e-10
-6.33926e-10
-6.55957e-10
-6.77955e-10
-6.99967e-10
-7.22011e-10
-7.43933e-10
-7.65981e-10
-7.88019e-10
-8.1e-10
-8.32023e-10
-8.54019e-10
-8.7603e-10
-8.98035e-10
-9.20043e-10
-9.42055e-10
-9.64065e-10
-9.86077e-10
-1.00809e-09
-1.03009e-09
-1.05209e-09
-1.07408e-09
-1.09614e-09
-1.11814e-09
-1.14011e-09
-1.16217e-09
-1.18419e-09
-1.20625e-09
-1.22826e-09
-1.25031e-09
-1.27239e-09
-1.29446e-09
-1.31654e-09
-1.33873e-09
-1.36093e-09
-1.38325e-09
-1.40566e-09
-1.4282e-09
-1.45097e-09
-1.474e-09
-1.4975e-09
-1.52157e-09
-1.54649e-09
-1.5725e-09
-1.60011e-09
-1.62992e-09
-1.66274e-09
-1.69955e-09
-1.74189e-09
-1.79143e-09
-1.85024e-09
-1.91919e-09
-1.99212e-09
-2.11095e-09
-2.28622e-09
1.2143e-10
-2.04653e-11
-3.80532e-11
-6.00429e-11
-8.27398e-11
-1.05264e-10
-1.27541e-10
-1.49716e-10
-1.71828e-10
-1.93843e-10
-2.15911e-10
-2.37883e-10
-2.59846e-10
-2.81915e-10
-3.03865e-10
-3.25886e-10
-3.47853e-10
-3.69902e-10
-3.91917e-10
-4.1391e-10
-4.35876e-10
-4.57895e-10
-4.79891e-10
-5.01903e-10
-5.23913e-10
-5.45913e-10
-5.67959e-10
-5.89931e-10
-6.11966e-10
-6.33959e-10
-6.55959e-10
-6.77964e-10
-6.99999e-10
-7.21938e-10
-7.44028e-10
-7.66023e-10
-7.87977e-10
-8.10015e-10
-8.32032e-10
-8.54017e-10
-8.76044e-10
-8.98036e-10
-9.20071e-10
-9.42055e-10
-9.64091e-10
-9.86069e-10
-1.00809e-09
-1.03011e-09
-1.05209e-09
-1.07414e-09
-1.09612e-09
-1.11815e-09
-1.1402e-09
-1.16217e-09
-1.18419e-09
-1.20622e-09
-1.22828e-09
-1.25031e-09
-1.27237e-09
-1.29446e-09
-1.31659e-09
-1.33871e-09
-1.36092e-09
-1.38318e-09
-1.4056e-09
-1.4281e-09
-1.45085e-09
-1.47393e-09
-1.49732e-09
-1.52142e-09
-1.54617e-09
-1.57212e-09
-1.59965e-09
-1.62931e-09
-1.66199e-09
-1.69864e-09
-1.74074e-09
-1.79002e-09
-1.84853e-09
-1.91778e-09
-1.99693e-09
-2.09909e-09
-2.28944e-09
1.43732e-10
-3.04354e-11
-4.05833e-11
-6.00412e-11
-8.26786e-11
-1.0521e-10
-1.27523e-10
-1.49694e-10
-1.71801e-10
-1.93848e-10
-2.15852e-10
-2.37889e-10
-2.59887e-10
-2.81823e-10
-3.03867e-10
-3.25856e-10
-3.47853e-10
-3.69849e-10
-3.91845e-10
-4.13858e-10
-4.35884e-10
-4.57883e-10
-4.79892e-10
-5.01906e-10
-5.23905e-10
-5.45923e-10
-5.67903e-10
-5.89929e-10
-6.11933e-10
-6.33941e-10
-6.55944e-10
-6.77953e-10
-6.99953e-10
-7.22e-10
-7.43961e-10
-7.6597e-10
-7.88016e-10
-8.1001e-10
-8.32011e-10
-8.54034e-10
-8.76039e-10
-8.98035e-10
-9.20054e-10
-9.42056e-10
-9.64058e-10
-9.86077e-10
-1.00808e-09
-1.03007e-09
-1.0521e-09
-1.07409e-09
-1.09613e-09
-1.11812e-09
-1.14011e-09
-1.16217e-09
-1.18418e-09
-1.20622e-09
-1.22823e-09
-1.25029e-09
-1.27235e-09
-1.29441e-09
-1.31651e-09
-1.33866e-09
-1.36084e-09
-1.38313e-09
-1.40548e-09
-1.42801e-09
-1.45073e-09
-1.47373e-09
-1.49713e-09
-1.52105e-09
-1.54586e-09
-1.57173e-09
-1.59911e-09
-1.62859e-09
-1.66112e-09
-1.69756e-09
-1.73939e-09
-1.78836e-09
-1.84644e-09
-1.91235e-09
-1.98655e-09
-2.08432e-09
-1.40395e-11
-4.04474e-11
-5.97986e-11
-8.25823e-11
-1.05185e-10
-1.27509e-10
-1.4969e-10
-1.71799e-10
-1.9385e-10
-2.15878e-10
-2.37876e-10
-2.59866e-10
-2.81899e-10
-3.03863e-10
-3.25872e-10
-3.47873e-10
-3.69876e-10
-3.91892e-10
-4.13902e-10
-4.35894e-10
-4.57897e-10
-4.79907e-10
-5.01901e-10
-5.23924e-10
-5.45916e-10
-5.67952e-10
-5.8994e-10
-6.11943e-10
-6.33961e-10
-6.55975e-10
-6.77964e-10
-6.99982e-10
-7.21966e-10
-7.44005e-10
-7.66015e-10
-7.87998e-10
-8.10015e-10
-8.32036e-10
-8.54032e-10
-8.76046e-10
-8.98061e-10
-9.20065e-10
-9.42066e-10
-9.64086e-10
-9.86076e-10
-1.00809e-09
-1.03011e-09
-1.0521e-09
-1.07412e-09
-1.09612e-09
-1.11815e-09
-1.14018e-09
-1.16216e-09
-1.18418e-09
-1.20621e-09
-1.22825e-09
-1.25029e-09
-1.27233e-09
-1.29441e-09
-1.31651e-09
-1.33864e-09
-1.36082e-09
-1.38308e-09
-1.40545e-09
-1.42793e-09
-1.45061e-09
-1.4736e-09
-1.49693e-09
-1.52088e-09
-1.54553e-09
-1.57134e-09
-1.59859e-09
-1.6282e-09
-1.66032e-09
-1.69643e-09
-1.73794e-09
-1.78655e-09
-1.8444e-09
-1.90949e-09
-1.99993e-09
-3.69904e-14
-3.98591e-11
-5.94363e-11
-8.24039e-11
-1.05075e-10
-1.27438e-10
-1.49647e-10
-1.71766e-10
-1.93823e-10
-2.15849e-10
-2.37871e-10
-2.59873e-10
-2.8183e-10
-3.03854e-10
-3.25869e-10
-3.47842e-10
-3.69864e-10
-3.9186e-10
-4.13865e-10
-4.35874e-10
-4.57888e-10
-4.79883e-10
-5.01913e-10
-5.23905e-10
-5.45915e-10
-5.67915e-10
-5.89924e-10
-6.11945e-10
-6.3394e-10
-6.55924e-10
-6.77966e-10
-6.99956e-10
-7.21972e-10
-7.43984e-10
-7.65982e-10
-7.87996e-10
-8.10017e-10
-8.32006e-10
-8.54031e-10
-8.76035e-10
-8.98034e-10
-9.20055e-10
-9.42046e-10
-9.64055e-10
-9.86069e-10
-1.00808e-09
-1.03008e-09
-1.05209e-09
-1.07411e-09
-1.09612e-09
-1.11812e-09
-1.14012e-09
-1.16216e-09
-1.18417e-09
-1.2062e-09
-1.22822e-09
-1.25024e-09
-1.27231e-09
-1.29437e-09
-1.31647e-09
-1.33858e-09
-1.36076e-09
-1.383e-09
-1.40534e-09
-1.4278e-09
-1.45045e-09
-1.4734e-09
-1.49672e-09
-1.52053e-09
-1.54516e-09
-1.57077e-09
-1.59798e-09
-1.62707e-09
-1.65903e-09
-1.69489e-09
-1.7361e-09
-1.78436e-09
-1.8417e-09
-1.90521e-09
-2.01047e-09
-1.54137e-11
-3.20906e-11
-5.73675e-11
-8.15877e-11
-1.04663e-10
-1.27222e-10
-1.49521e-10
-1.71665e-10
-1.93769e-10
-2.15819e-10
-2.37841e-10
-2.59857e-10
-2.81859e-10
-3.03869e-10
-3.25855e-10
-3.4786e-10
-3.6987e-10
-3.91876e-10
-4.13881e-10
-4.35883e-10
-4.57903e-10
-4.79902e-10
-5.01886e-10
-5.23918e-10
-5.45921e-10
-5.67938e-10
-5.89943e-10
-6.11946e-10
-6.33942e-10
-6.55969e-10
-6.77967e-10
-6.99974e-10
-7.21971e-10
-7.43995e-10
-7.66004e-10
-7.88004e-10
-8.1001e-10
-8.32012e-10
-8.54027e-10
-8.76045e-10
-8.9804e-10
-9.20046e-10
-9.42068e-10
-9.64062e-10
-9.86096e-10
-1.00809e-09
-1.03012e-09
-1.05213e-09
-1.07415e-09
-1.09617e-09
-1.11819e-09
-1.14021e-09
-1.16225e-09
-1.18427e-09
-1.20634e-09
-1.2284e-09
-1.25048e-09
-1.27256e-09
-1.2947e-09
-1.31686e-09
-1.33909e-09
-1.36135e-09
-1.3837e-09
-1.40617e-09
-1.42882e-09
-1.45165e-09
-1.47478e-09
-1.49831e-09
-1.5224e-09
-1.54717e-09
-1.57301e-09
-1.60014e-09
-1.62927e-09
-1.66096e-09
-1.69626e-09
-1.73649e-09
-1.7836e-09
-1.84034e-09
-1.90905e-09
-1.98566e-09
1.45433e-10
-2.3848e-11
-3.3661e-11
-5.7975e-11
-8.18477e-11
-1.04815e-10
-1.27311e-10
-1.49582e-10
-1.7171e-10
-1.93794e-10
-2.15848e-10
-2.37852e-10
-2.5986e-10
-2.81879e-10
-3.03857e-10
-3.25877e-10
-3.47885e-10
-3.69875e-10
-3.91877e-10
-4.13893e-10
-4.35899e-10
-4.5789e-10
-4.79905e-10
-5.01926e-10
-5.23932e-10
-5.45935e-10
-5.67937e-10
-5.89944e-10
-6.11956e-10
-6.33991e-10
-6.55968e-10
-6.77974e-10
-6.99988e-10
-7.21997e-10
-7.44002e-10
-7.65995e-10
-7.8801e-10
-8.10033e-10
-8.32028e-10
-8.54031e-10
-8.76052e-10
-8.98055e-10
-9.20059e-10
-9.42067e-10
-9.64078e-10
-9.86103e-10
-1.00812e-09
-1.03011e-09
-1.05213e-09
-1.07415e-09
-1.09619e-09
-1.11819e-09
-1.14022e-09
-1.16225e-09
-1.1843e-09
-1.20634e-09
-1.2284e-09
-1.25048e-09
-1.2726e-09
-1.29471e-09
-1.31686e-09
-1.33907e-09
-1.36133e-09
-1.3837e-09
-1.40619e-09
-1.42882e-09
-1.45168e-09
-1.47483e-09
-1.49838e-09
-1.5225e-09
-1.54737e-09
-1.57326e-09
-1.60058e-09
-1.62996e-09
-1.66189e-09
-1.69751e-09
-1.73815e-09
-1.78568e-09
-1.84277e-09
-1.91176e-09
-1.98155e-09
-2.05639e-09
1.31306e-10
-1.07201e-11
-3.43296e-11
-5.84054e-11
-8.20274e-11
-1.04893e-10
-1.27352e-10
-1.4958e-10
-1.71717e-10
-1.93799e-10
-2.15827e-10
-2.3788e-10
-2.59865e-10
-2.81842e-10
-3.03889e-10
-3.25863e-10
-3.47838e-10
-3.69872e-10
-3.91883e-10
-4.13881e-10
-4.35891e-10
-4.57907e-10
-4.799e-10
-5.01894e-10
-5.23919e-10
-5.45919e-10
-5.67941e-10
-5.8994e-10
-6.11941e-10
-6.33925e-10
-6.55971e-10
-6.77975e-10
-6.99949e-10
-7.21984e-10
-7.43984e-10
-7.66025e-10
-7.88019e-10
-8.09976e-10
-8.32022e-10
-8.54036e-10
-8.76038e-10
-8.98032e-10
-9.20061e-10
-9.42074e-10
-9.64075e-10
-9.8608e-10
-1.00809e-09
-1.03012e-09
-1.05213e-09
-1.07417e-09
-1.09614e-09
-1.11819e-09
-1.14021e-09
-1.16224e-09
-1.18428e-09
-1.20632e-09
-1.2284e-09
-1.25046e-09
-1.27253e-09
-1.29467e-09
-1.31682e-09
-1.33906e-09
-1.36133e-09
-1.38368e-09
-1.40614e-09
-1.4288e-09
-1.45163e-09
-1.47482e-09
-1.49839e-09
-1.52251e-09
-1.54742e-09
-1.57343e-09
-1.60088e-09
-1.63034e-09
-1.66256e-09
-1.69853e-09
-1.7396e-09
-1.78763e-09
-1.84513e-09
-1.91456e-09
-1.99854e-09
-2.06107e-09
-2.26059e-09
1.50715e-10
-1.36549e-11
-3.52756e-11
-5.88351e-11
-8.22049e-11
-1.04971e-10
-1.27403e-10
-1.4963e-10
-1.71738e-10
-1.93812e-10
-2.15846e-10
-2.3787e-10
-2.59867e-10
-2.81854e-10
-3.03854e-10
-3.25887e-10
-3.47894e-10
-3.6987e-10
-3.91886e-10
-4.13898e-10
-4.35898e-10
-4.57859e-10
-4.79895e-10
-5.01948e-10
-5.23932e-10
-5.45929e-10
-5.67936e-10
-5.89927e-10
-6.11961e-10
-6.33994e-10
-6.5595e-10
-6.77978e-10
-6.99987e-10
-7.22002e-10
-7.43994e-10
-7.65982e-10
-7.87986e-10
-8.10052e-10
-8.32036e-10
-8.54e-10
-8.76048e-10
-8.98056e-10
-9.20046e-10
-9.42072e-10
-9.64056e-10
-9.86105e-10
-1.0081e-09
-1.03012e-09
-1.05213e-09
-1.07413e-09
-1.09619e-09
-1.11819e-09
-1.14022e-09
-1.16223e-09
-1.18428e-09
-1.20631e-09
-1.22839e-09
-1.25045e-09
-1.27258e-09
-1.2947e-09
-1.31684e-09
-1.339e-09
-1.36129e-09
-1.38368e-09
-1.40612e-09
-1.4288e-09
-1.45165e-09
-1.47479e-09
-1.4984e-09
-1.52255e-09
-1.54755e-09
-1.57355e-09
-1.60108e-09
-1.63076e-09
-1.66319e-09
-1.69943e-09
-1.7409e-09
-1.78936e-09
-1.84721e-09
-1.91673e-09
-1.99847e-09
-2.01472e-09
-2.27519e-09
1.1168e-10
-9.37668e-12
-3.57417e-11
-5.92124e-11
-8.23894e-11
-1.05064e-10
-1.27453e-10
-1.49681e-10
-1.7176e-10
-1.93845e-10
-2.15872e-10
-2.37893e-10
-2.59868e-10
-2.81887e-10
-3.03889e-10
-3.25871e-10
-3.47835e-10
-3.69874e-10
-3.91894e-10
-4.1389e-10
-4.3589e-10
-4.57932e-10
-4.79904e-10
-5.01897e-10
-5.23939e-10
-5.45926e-10
-5.67942e-10
-5.89937e-10
-6.11958e-10
-6.33947e-10
-6.55978e-10
-6.7797e-10
-6.99989e-10
-7.21978e-10
-7.43987e-10
-7.66016e-10
-7.88038e-10
-8.09997e-10
-8.32031e-10
-8.54049e-10
-8.76049e-10
-8.9803e-10
-9.20074e-10
-9.42073e-10
-9.64075e-10
-9.86101e-10
-1.0081e-09
-1.0301e-09
-1.05213e-09
-1.07415e-09
-1.09616e-09
-1.11821e-09
-1.14019e-09
-1.16224e-09
-1.18426e-09
-1.20634e-09
-1.22838e-09
-1.25044e-09
-1.27252e-09
-1.29466e-09
-1.31679e-09
-1.33903e-09
-1.36129e-09
-1.38362e-09
-1.40615e-09
-1.42874e-09
-1.45159e-09
-1.4748e-09
-1.49837e-09
-1.52257e-09
-1.54754e-09
-1.57368e-09
-1.6013e-09
-1.63101e-09
-1.66363e-09
-1.70017e-09
-1.74194e-09
-1.79084e-09
-1.84905e-09
-1.91918e-09
-2.00541e-09
-2.05642e-09
-2.25815e-09
9.00453e-11
-1.32198e-11
-3.73112e-11
-5.97285e-11
-8.2621e-11
-1.05199e-10
-1.27579e-10
-1.49723e-10
-1.71845e-10
-1.93873e-10
-2.15897e-10
-2.37946e-10
-2.59914e-10
-2.81856e-10
-3.03899e-10
-3.25877e-10
-3.47922e-10
-3.699e-10
-3.919e-10
-4.13897e-10
-4.35919e-10
-4.57851e-10
-4.79947e-10
-5.01974e-10
-5.23912e-10
-5.45932e-10
-5.67958e-10
-5.89935e-10
-6.11986e-10
-6.33979e-10
-6.55982e-10
-6.77976e-10
-7.0001e-10
-7.22016e-10
-7.44e-10
-7.65978e-10
-7.88039e-10
-8.10046e-10
-8.32057e-10
-8.54028e-10
-8.7609e-10
-8.98079e-10
-9.20053e-10
-9.42104e-10
-9.64087e-10
-9.86117e-10
-1.00812e-09
-1.03014e-09
-1.05212e-09
-1.07416e-09
-1.09615e-09
-1.11818e-09
-1.14022e-09
-1.16224e-09
-1.1843e-09
-1.2063e-09
-1.2284e-09
-1.25046e-09
-1.27254e-09
-1.29466e-09
-1.31681e-09
-1.33898e-09
-1.36126e-09
-1.3836e-09
-1.40606e-09
-1.42876e-09
-1.45158e-09
-1.47479e-09
-1.49836e-09
-1.52256e-09
-1.5476e-09
-1.57371e-09
-1.60145e-09
-1.63129e-09
-1.66408e-09
-1.70079e-09
-1.74288e-09
-1.79204e-09
-1.85044e-09
-1.91997e-09
-2.006e-09
-2.10207e-09
-2.25207e-09
8.03617e-11
-1.66765e-11
-3.82709e-11
-6.00286e-11
-8.27778e-11
-1.05277e-10
-1.27614e-10
-1.49746e-10
-1.71844e-10
-1.93892e-10
-2.15914e-10
-2.37893e-10
-2.59899e-10
-2.81908e-10
-3.03891e-10
-3.25889e-10
-3.47847e-10
-3.69879e-10
-3.919e-10
-4.13879e-10
-4.35872e-10
-4.57924e-10
-4.79872e-10
-5.01896e-10
-5.23969e-10
-5.45919e-10
-5.67936e-10
-5.89955e-10
-6.11932e-10
-6.33973e-10
-6.5597e-10
-6.77975e-10
-6.99972e-10
-7.21979e-10
-7.43996e-10
-7.66013e-10
-7.88025e-10
-8.10031e-10
-8.3205e-10
-8.54026e-10
-8.76056e-10
-8.98067e-10
-9.20069e-10
-9.42091e-10
-9.64039e-10
-9.861e-10
-1.0081e-09
-1.03012e-09
-1.05216e-09
-1.07413e-09
-1.09616e-09
-1.1182e-09
-1.14022e-09
-1.16224e-09
-1.18422e-09
-1.20632e-09
-1.22832e-09
-1.2504e-09
-1.27251e-09
-1.29463e-09
-1.31678e-09
-1.33897e-09
-1.36123e-09
-1.38357e-09
-1.40603e-09
-1.42865e-09
-1.45155e-09
-1.47466e-09
-1.49831e-09
-1.52251e-09
-1.54755e-09
-1.57373e-09
-1.60152e-09
-1.63143e-09
-1.66433e-09
-1.70121e-09
-1.74349e-09
-1.79292e-09
-1.85143e-09
-1.92057e-09
-2.00466e-09
-2.11687e-09
-2.24964e-09
5.24877e-11
-1.50909e-11
-3.75687e-11
-6.01611e-11
-8.28497e-11
-1.05344e-10
-1.2764e-10
-1.49776e-10
-1.71861e-10
-1.93909e-10
-2.15925e-10
-2.37925e-10
-2.59942e-10
-2.81903e-10
-3.03873e-10
-3.25906e-10
-3.47894e-10
-3.69921e-10
-3.91899e-10
-4.13887e-10
-4.359e-10
-4.5791e-10
-4.79957e-10
-5.01945e-10
-5.23882e-10
-5.45939e-10
-5.67951e-10
-5.89937e-10
-6.11999e-10
-6.33968e-10
-6.56006e-10
-6.77956e-10
-7.00013e-10
-7.22003e-10
-7.43987e-10
-7.66007e-10
-7.88037e-10
-8.10018e-10
-8.3204e-10
-8.54047e-10
-8.76052e-10
-8.98054e-10
-9.20054e-10
-9.4209e-10
-9.6408e-10
-9.86112e-10
-1.00811e-09
-1.03013e-09
-1.0521e-09
-1.07415e-09
-1.09618e-09
-1.11819e-09
-1.14019e-09
-1.16223e-09
-1.18425e-09
-1.20632e-09
-1.2284e-09
-1.25043e-09
-1.27253e-09
-1.29461e-09
-1.31672e-09
-1.33895e-09
-1.36121e-09
-1.38353e-09
-1.40599e-09
-1.42868e-09
-1.45144e-09
-1.47473e-09
-1.49824e-09
-1.52247e-09
-1.54748e-09
-1.57373e-09
-1.60152e-09
-1.63148e-09
-1.66445e-09
-1.70149e-09
-1.74389e-09
-1.79349e-09
-1.85228e-09
-1.92253e-09
-2.00739e-09
-2.15214e-09
-2.25109e-09
4.99845e-11
-1.8661e-11
-3.85406e-11
-6.02897e-11
-8.29204e-11
-1.05374e-10
-1.2767e-10
-1.4977e-10
-1.71874e-10
-1.93909e-10
-2.15931e-10
-2.37869e-10
-2.59927e-10
-2.81901e-10
-3.03953e-10
-3.25857e-10
-3.47928e-10
-3.69848e-10
-3.91879e-10
-4.13898e-10
-4.35898e-10
-4.5789e-10
-4.79884e-10
-5.01892e-10
-5.23968e-10
-5.4593e-10
-5.67916e-10
-5.89961e-10
-6.11931e-10
-6.33976e-10
-6.5596e-10
-6.77989e-10
-6.99971e-10
-7.2199e-10
-7.44015e-10
-7.65971e-10
-7.88027e-10
-8.10014e-10
-8.32034e-10
-8.54037e-10
-8.76048e-10
-8.98046e-10
-9.2006e-10
-9.42087e-10
-9.64068e-10
-9.86097e-10
-1.00808e-09
-1.03009e-09
-1.05217e-09
-1.07412e-09
-1.09615e-09
-1.11816e-09
-1.14023e-09
-1.16224e-09
-1.18426e-09
-1.20628e-09
-1.22828e-09
-1.25035e-09
-1.27248e-09
-1.2946e-09
-1.31677e-09
-1.33891e-09
-1.36117e-09
-1.38351e-09
-1.40594e-09
-1.42855e-09
-1.45144e-09
-1.47453e-09
-1.49818e-09
-1.52233e-09
-1.54743e-09
-1.57362e-09
-1.60145e-09
-1.63145e-09
-1.66446e-09
-1.70156e-09
-1.74407e-09
-1.79377e-09
-1.85269e-09
-1.9223e-09
-2.00496e-09
-2.15106e-09
-2.25197e-09
4.89872e-11
-1.574e-11
-3.76294e-11
-6.02847e-11
-8.29697e-11
-1.05397e-10
-1.27661e-10
-1.49836e-10
-1.7186e-10
-1.93923e-10
-2.15884e-10
-2.37951e-10
-2.59937e-10
-2.81902e-10
-3.03839e-10
-3.25921e-10
-3.47875e-10
-3.69933e-10
-3.91877e-10
-4.13882e-10
-4.35886e-10
-4.57956e-10
-4.7993e-10
-5.01908e-10
-5.23899e-10
-5.45903e-10
-5.6798e-10
-5.89936e-10
-6.11982e-10
-6.33957e-10
-6.5598e-10
-6.77949e-10
-7.0002e-10
-7.22011e-10
-7.43981e-10
-7.65979e-10
-7.88028e-10
-8.10012e-10
-8.32028e-10
-8.54028e-10
-8.76044e-10
-8.98042e-10
-9.2006e-10
-9.42074e-10
-9.64052e-10
-9.86091e-10
-1.0081e-09
-1.03015e-09
-1.05209e-09
-1.07412e-09
-1.09617e-09
-1.11818e-09
-1.14018e-09
-1.16221e-09
-1.1842e-09
-1.2063e-09
-1.22839e-09
-1.2504e-09
-1.27248e-09
-1.29457e-09
-1.31664e-09
-1.3389e-09
-1.36113e-09
-1.38346e-09
-1.40589e-09
-1.42856e-09
-1.45129e-09
-1.47455e-09
-1.49806e-09
-1.52227e-09
-1.54725e-09
-1.5735e-09
-1.6013e-09
-1.63133e-09
-1.66434e-09
-1.70146e-09
-1.744e-09
-1.79378e-09
-1.85281e-09
-1.9234e-09
-2.00809e-09
-2.15176e-09
-2.25256e-09
4.80183e-11
-1.73029e-11
-3.81588e-11
-6.03421e-11
-8.29647e-11
-1.0542e-10
-1.27686e-10
-1.4976e-10
-1.71881e-10
-1.93917e-10
-2.1595e-10
-2.37893e-10
-2.59918e-10
-2.81902e-10
-3.03953e-10
-3.25844e-10
-3.47954e-10
-3.69837e-10
-3.91901e-10
-4.13911e-10
-4.35889e-10
-4.57857e-10
-4.79895e-10
-5.01948e-10
-5.23946e-10
-5.45961e-10
-5.67894e-10
-5.89958e-10
-6.11961e-10
-6.33978e-10
-6.55972e-10
-6.77984e-10
-6.99954e-10
-7.21977e-10
-7.44017e-10
-7.65974e-10
-7.88033e-10
-8.10003e-10
-8.3202e-10
-8.54027e-10
-8.76043e-10
-8.98033e-10
-9.20055e-10
-9.42071e-10
-9.64067e-10
-9.86087e-10
-1.00809e-09
-1.03009e-09
-1.05217e-09
-1.07415e-09
-1.09611e-09
-1.11816e-09
-1.14023e-09
-1.16223e-09
-1.18428e-09
-1.20627e-09
-1.22824e-09
-1.25035e-09
-1.27245e-09
-1.29455e-09
-1.31672e-09
-1.33882e-09
-1.36109e-09
-1.3834e-09
-1.40583e-09
-1.42844e-09
-1.45129e-09
-1.47437e-09
-1.49797e-09
-1.52209e-09
-1.54712e-09
-1.5733e-09
-1.60114e-09
-1.63103e-09
-1.66409e-09
-1.7012e-09
-1.74374e-09
-1.79349e-09
-1.85252e-09
-1.92274e-09
-2.00638e-09
-2.15108e-09
-2.25305e-09
4.79791e-11
-1.73208e-11
-3.81608e-11
-6.03289e-11
-8.29727e-11
-1.05407e-10
-1.27683e-10
-1.49818e-10
-1.71874e-10
-1.93919e-10
-2.15892e-10
-2.37922e-10
-2.59965e-10
-2.81891e-10
-3.03838e-10
-3.25885e-10
-3.47895e-10
-3.6992e-10
-3.91833e-10
-4.13865e-10
-4.35912e-10
-4.57972e-10
-4.79934e-10
-5.01885e-10
-5.23926e-10
-5.45892e-10
-5.67972e-10
-5.89949e-10
-6.11937e-10
-6.33949e-10
-6.55946e-10
-6.77975e-10
-7.00008e-10
-7.21969e-10
-7.43993e-10
-7.66008e-10
-7.87993e-10
-8.10013e-10
-8.32013e-10
-8.54036e-10
-8.7603e-10
-8.98054e-10
-9.20051e-10
-9.42071e-10
-9.64062e-10
-9.8609e-10
-1.00809e-09
-1.03011e-09
-1.0521e-09
-1.07409e-09
-1.09617e-09
-1.11817e-09
-1.14017e-09
-1.1622e-09
-1.18417e-09
-1.20627e-09
-1.22837e-09
-1.25036e-09
-1.27243e-09
-1.29452e-09
-1.31659e-09
-1.33884e-09
-1.36104e-09
-1.38337e-09
-1.40578e-09
-1.42841e-09
-1.45114e-09
-1.4743e-09
-1.49778e-09
-1.52196e-09
-1.54692e-09
-1.57305e-09
-1.60081e-09
-1.63074e-09
-1.6637e-09
-1.70073e-09
-1.74316e-09
-1.79293e-09
-1.85189e-09
-1.92201e-09
-2.00567e-09
-2.1503e-09
-2.25226e-09
4.89613e-11
-1.59314e-11
-3.76939e-11
-6.02975e-11
-8.29472e-11
-1.0541e-10
-1.27653e-10
-1.49807e-10
-1.71844e-10
-1.9391e-10
-2.15933e-10
-2.37914e-10
-2.59919e-10
-2.81927e-10
-3.03906e-10
-3.25859e-10
-3.47949e-10
-3.69876e-10
-3.91881e-10
-4.13916e-10
-4.35877e-10
-4.57873e-10
-4.79876e-10
-5.01947e-10
-5.23947e-10
-5.45963e-10
-5.67916e-10
-5.8995e-10
-6.11935e-10
-6.33979e-10
-6.56009e-10
-6.7798e-10
-6.99967e-10
-7.2197e-10
-7.43987e-10
-7.66003e-10
-7.88051e-10
-8.10011e-10
-8.32009e-10
-8.54024e-10
-8.76039e-10
-8.98054e-10
-9.20054e-10
-9.42068e-10
-9.64061e-10
-9.86091e-10
-1.00808e-09
-1.03009e-09
-1.05215e-09
-1.07416e-09
-1.09612e-09
-1.11815e-09
-1.14023e-09
-1.16221e-09
-1.18427e-09
-1.20625e-09
-1.22822e-09
-1.25037e-09
-1.27241e-09
-1.29451e-09
-1.31667e-09
-1.33877e-09
-1.36101e-09
-1.38327e-09
-1.40571e-09
-1.42827e-09
-1.45111e-09
-1.47414e-09
-1.49769e-09
-1.52175e-09
-1.54669e-09
-1.57278e-09
-1.60046e-09
-1.63027e-09
-1.66318e-09
-1.70007e-09
-1.74251e-09
-1.79202e-09
-1.85087e-09
-1.92141e-09
-2.00611e-09
-2.14942e-09
-2.2509e-09
4.98678e-11
-1.8587e-11
-3.85201e-11
-6.02896e-11
-8.29078e-11
-1.0537e-10
-1.27655e-10
-1.49784e-10
-1.7186e-10
-1.93899e-10
-2.15933e-10
-2.37893e-10
-2.59932e-10
-2.81877e-10
-3.03865e-10
-3.25863e-10
-3.47886e-10
-3.69891e-10
-3.91847e-10
-4.13865e-10
-4.35904e-10
-4.57942e-10
-4.79931e-10
-5.01896e-10
-5.23898e-10
-5.45904e-10
-5.67953e-10
-5.89955e-10
-6.11969e-10
-6.33944e-10
-6.55896e-10
-6.77987e-10
-6.99974e-10
-7.22026e-10
-7.43982e-10
-7.66009e-10
-7.88008e-10
-8.10016e-10
-8.32006e-10
-8.54049e-10
-8.76036e-10
-8.98056e-10
-9.20059e-10