/*--------------------------------*- C++ -*----------------------------------*\
| =========                 |                                                 |
| \\      /  F ield         | OpenFOAM: The Open Source CFD Toolbox           |
|  \\    /   O peration     | Version:  v1906                                 |
|   \\  /    A nd           | Web:      www.OpenFOAM.com                      |
|    \\/     M anipulation  |                                                 |
\*---------------------------------------------------------------------------*/
FoamFile
{
    version     2.0;
    format      ascii;
    class       volScalarField;
    location    "50.5";
    object      p;
}
// * * * * * * * * * * * * * * * * * * * * * * * * * * * * * * * * * * * * * //

dimensions      [0 2 -2 0 0 0 0];


internalField   nonuniform List<scalar> 
243374
(
-1.02156e-13
-3.95926e-11
-5.93578e-11
-8.23478e-11
-1.05004e-10
-1.27343e-10
-1.49532e-10
-1.71608e-10
-1.93641e-10
-2.15629e-10
-2.37595e-10
-2.59565e-10
-2.81528e-10
-3.0348e-10
-3.25438e-10
-3.47389e-10
-3.69354e-10
-3.91317e-10
-4.13272e-10
-4.35242e-10
-4.57216e-10
-4.79164e-10
-5.01124e-10
-5.23101e-10
-5.45058e-10
-5.67024e-10
-5.8899e-10
-6.10949e-10
-6.32914e-10
-6.54883e-10
-6.76848e-10
-6.98809e-10
-7.20774e-10
-7.42741e-10
-7.64708e-10
-7.86672e-10
-8.08627e-10
-8.30599e-10
-8.52568e-10
-8.74524e-10
-8.96486e-10
-9.1846e-10
-9.40415e-10
-9.62382e-10
-9.84344e-10
-1.00631e-09
-1.02827e-09
-1.05024e-09
-1.0722e-09
-1.09417e-09
-1.11614e-09
-1.13811e-09
-1.16008e-09
-1.18204e-09
-1.20403e-09
-1.22601e-09
-1.24801e-09
-1.27002e-09
-1.29205e-09
-1.31412e-09
-1.33624e-09
-1.35843e-09
-1.38071e-09
-1.40314e-09
-1.42578e-09
-1.44872e-09
-1.47208e-09
-1.49605e-09
-1.52089e-09
-1.54693e-09
-1.57475e-09
-1.60492e-09
-1.63858e-09
-1.67692e-09
-1.72165e-09
-1.77532e-09
-1.84098e-09
-1.92218e-09
-2.01708e-09
-2.16757e-09
-1.29377e-11
-4.04006e-11
-5.97281e-11
-8.25169e-11
-1.05096e-10
-1.27406e-10
-1.49577e-10
-1.71645e-10
-1.93652e-10
-2.15643e-10
-2.37615e-10
-2.59575e-10
-2.81527e-10
-3.03484e-10
-3.25442e-10
-3.47405e-10
-3.69366e-10
-3.9132e-10
-4.13292e-10
-4.35246e-10
-4.57206e-10
-4.79189e-10
-5.01146e-10
-5.23093e-10
-5.45069e-10
-5.67032e-10
-5.88994e-10
-6.10961e-10
-6.32923e-10
-6.54886e-10
-6.76853e-10
-6.98821e-10
-7.20781e-10
-7.42746e-10
-7.64715e-10
-7.86675e-10
-8.08645e-10
-8.30604e-10
-8.52569e-10
-8.74536e-10
-8.96498e-10
-9.18461e-10
-9.40426e-10
-9.62394e-10
-9.84347e-10
-1.00632e-09
-1.02828e-09
-1.05024e-09
-1.07221e-09
-1.09418e-09
-1.11614e-09
-1.13811e-09
-1.16007e-09
-1.18206e-09
-1.20403e-09
-1.22602e-09
-1.24801e-09
-1.27003e-09
-1.29206e-09
-1.31413e-09
-1.33624e-09
-1.35843e-09
-1.38072e-09
-1.40317e-09
-1.42581e-09
-1.44876e-09
-1.47216e-09
-1.49616e-09
-1.52106e-09
-1.54717e-09
-1.57508e-09
-1.60547e-09
-1.63931e-09
-1.67795e-09
-1.72329e-09
-1.77741e-09
-1.84363e-09
-1.92569e-09
-2.02282e-09
-2.15937e-09
-2.99149e-11
-4.05828e-11
-5.99734e-11
-8.26101e-11
-1.05138e-10
-1.27422e-10
-1.4957e-10
-1.71642e-10
-1.93663e-10
-2.15643e-10
-2.37602e-10
-2.59568e-10
-2.81527e-10
-3.03484e-10
-3.25437e-10
-3.47393e-10
-3.69348e-10
-3.91319e-10
-4.13271e-10
-4.3524e-10
-4.57213e-10
-4.7915e-10
-5.01122e-10
-5.2311e-10
-5.45059e-10
-5.67022e-10
-5.88992e-10
-6.10947e-10
-6.32914e-10
-6.54877e-10
-6.7684e-10
-6.98806e-10
-7.20779e-10
-7.42745e-10
-7.647e-10
-7.86668e-10
-8.08626e-10
-8.30598e-10
-8.52569e-10
-8.74522e-10
-8.96493e-10
-9.18459e-10
-9.40418e-10
-9.62375e-10
-9.8435e-10
-1.00631e-09
-1.02827e-09
-1.05025e-09
-1.0722e-09
-1.09416e-09
-1.11614e-09
-1.1381e-09
-1.16008e-09
-1.18204e-09
-1.20402e-09
-1.226e-09
-1.248e-09
-1.27e-09
-1.29204e-09
-1.31412e-09
-1.33624e-09
-1.35843e-09
-1.38072e-09
-1.40315e-09
-1.42582e-09
-1.44879e-09
-1.47218e-09
-1.49622e-09
-1.52114e-09
-1.54732e-09
-1.57531e-09
-1.60581e-09
-1.63979e-09
-1.67866e-09
-1.72425e-09
-1.77882e-09
-1.84553e-09
-1.92801e-09
-2.02641e-09
-2.14597e-09
1.26259e-10
-2.30664e-11
-3.81767e-11
-5.99947e-11
-8.26647e-11
-1.05175e-10
-1.27442e-10
-1.49623e-10
-1.71657e-10
-1.93661e-10
-2.15648e-10
-2.37626e-10
-2.59573e-10
-2.81533e-10
-3.03478e-10
-3.25443e-10
-3.47396e-10
-3.6937e-10
-3.91313e-10
-4.13293e-10
-4.35256e-10
-4.57205e-10
-4.79191e-10
-5.0114e-10
-5.23081e-10
-5.45063e-10
-5.67028e-10
-5.88993e-10
-6.10964e-10
-6.3292e-10
-6.54891e-10
-6.7686e-10
-6.98819e-10
-7.2077e-10
-7.42735e-10
-7.64721e-10
-7.86666e-10
-8.08643e-10
-8.30599e-10
-8.52557e-10
-8.74523e-10
-8.96492e-10
-9.18455e-10
-9.40418e-10
-9.624e-10
-9.84339e-10
-1.00632e-09
-1.02829e-09
-1.05022e-09
-1.07222e-09
-1.09419e-09
-1.11613e-09
-1.13809e-09
-1.16006e-09
-1.18205e-09
-1.20402e-09
-1.22602e-09
-1.24801e-09
-1.27003e-09
-1.29206e-09
-1.31411e-09
-1.33623e-09
-1.35842e-09
-1.38072e-09
-1.40318e-09
-1.42583e-09
-1.4488e-09
-1.47223e-09
-1.49627e-09
-1.52123e-09
-1.54747e-09
-1.5755e-09
-1.60608e-09
-1.64027e-09
-1.67926e-09
-1.72506e-09
-1.77996e-09
-1.8471e-09
-1.93015e-09
-2.03222e-09
-2.1524e-09
-2.28272e-09
1.15896e-10
-2.84493e-11
-3.88921e-11
-6.00433e-11
-8.27037e-11
-1.052e-10
-1.2746e-10
-1.49589e-10
-1.71667e-10
-1.93673e-10
-2.15652e-10
-2.37616e-10
-2.59563e-10
-2.81523e-10
-3.03494e-10
-3.25437e-10
-3.47407e-10
-3.69344e-10
-3.91325e-10
-4.13271e-10
-4.35229e-10
-4.57198e-10
-4.79145e-10
-5.01131e-10
-5.23117e-10
-5.45063e-10
-5.6703e-10
-5.88989e-10
-6.10945e-10
-6.32918e-10
-6.54876e-10
-6.76841e-10
-6.988e-10
-7.20776e-10
-7.42753e-10
-7.64697e-10
-7.86675e-10
-8.08631e-10
-8.30589e-10
-8.52558e-10
-8.74525e-10
-8.96486e-10
-9.1845e-10
-9.40413e-10
-9.62375e-10
-9.84353e-10
-1.00631e-09
-1.02826e-09
-1.05026e-09
-1.07219e-09
-1.09415e-09
-1.11613e-09
-1.13811e-09
-1.16009e-09
-1.18205e-09
-1.20401e-09
-1.22598e-09
-1.248e-09
-1.26999e-09
-1.29203e-09
-1.31413e-09
-1.33623e-09
-1.35842e-09
-1.38072e-09
-1.40315e-09
-1.42581e-09
-1.44881e-09
-1.47221e-09
-1.49629e-09
-1.52126e-09
-1.54752e-09
-1.5756e-09
-1.60626e-09
-1.64047e-09
-1.67965e-09
-1.72561e-09
-1.78072e-09
-1.84814e-09
-1.93155e-09
-2.03356e-09
-2.1511e-09
-2.30253e-09
-2.54474e-09
1.10456e-10
-2.23447e-11
-3.75612e-11
-5.99694e-11
-8.27265e-11
-1.05195e-10
-1.27471e-10
-1.49637e-10
-1.71664e-10
-1.93672e-10
-2.1565e-10
-2.37618e-10
-2.59581e-10
-2.81531e-10
-3.03472e-10
-3.25451e-10
-3.47383e-10
-3.69369e-10
-3.91307e-10
-4.13283e-10
-4.35258e-10
-4.57215e-10
-4.79192e-10
-5.01135e-10
-5.23076e-10
-5.45063e-10
-5.67021e-10
-5.88989e-10
-6.10958e-10
-6.32914e-10
-6.54883e-10
-6.76855e-10
-6.98829e-10
-7.20777e-10
-7.42726e-10
-7.64707e-10
-7.86661e-10
-8.08628e-10
-8.30593e-10
-8.52558e-10
-8.74515e-10
-8.96489e-10
-9.1845e-10
-9.40419e-10
-9.6238e-10
-9.84343e-10
-1.00631e-09
-1.02828e-09
-1.05022e-09
-1.0722e-09
-1.09418e-09
-1.11614e-09
-1.13808e-09
-1.16005e-09
-1.18204e-09
-1.20402e-09
-1.22602e-09
-1.248e-09
-1.27001e-09
-1.29205e-09
-1.31409e-09
-1.33623e-09
-1.35841e-09
-1.3807e-09
-1.40315e-09
-1.42582e-09
-1.44879e-09
-1.47222e-09
-1.49628e-09
-1.52126e-09
-1.54753e-09
-1.57563e-09
-1.60631e-09
-1.6406e-09
-1.67981e-09
-1.72584e-09
-1.78108e-09
-1.84865e-09
-1.93233e-09
-2.03595e-09
-2.15894e-09
-2.3117e-09
-2.54542e-09
1.05958e-10
-2.53881e-11
-3.80568e-11
-6.00222e-11
-8.27288e-11
-1.0523e-10
-1.2747e-10
-1.49612e-10
-1.71673e-10
-1.93666e-10
-2.15664e-10
-2.37618e-10
-2.59556e-10
-2.81536e-10
-3.03497e-10
-3.25433e-10
-3.47405e-10
-3.69352e-10
-3.91334e-10
-4.13284e-10
-4.3523e-10
-4.57192e-10
-4.7915e-10
-5.01133e-10
-5.23109e-10
-5.45067e-10
-5.67031e-10
-5.88988e-10
-6.10955e-10
-6.32923e-10
-6.54882e-10
-6.76841e-10
-6.98794e-10
-7.20768e-10
-7.42757e-10
-7.6471e-10
-7.86664e-10
-8.08627e-10
-8.30587e-10
-8.52545e-10
-8.74517e-10
-8.96466e-10
-9.18448e-10
-9.40396e-10
-9.62378e-10
-9.8434e-10
-1.00631e-09
-1.02826e-09
-1.05026e-09
-1.07221e-09
-1.09416e-09
-1.11612e-09
-1.13811e-09
-1.16008e-09
-1.18204e-09
-1.204e-09
-1.22599e-09
-1.24799e-09
-1.26999e-09
-1.29202e-09
-1.31411e-09
-1.33621e-09
-1.3584e-09
-1.38069e-09
-1.40313e-09
-1.42578e-09
-1.44877e-09
-1.47218e-09
-1.49625e-09
-1.52122e-09
-1.54749e-09
-1.57558e-09
-1.60625e-09
-1.64051e-09
-1.67975e-09
-1.72579e-09
-1.78103e-09
-1.84862e-09
-1.93233e-09
-2.03564e-09
-2.1563e-09
-2.31431e-09
-2.54632e-09
1.04397e-10
-2.53494e-11
-3.80446e-11
-6.00068e-11
-8.27288e-11
-1.05197e-10
-1.27481e-10
-1.49617e-10
-1.71672e-10
-1.93684e-10
-2.15641e-10
-2.37618e-10
-2.59583e-10
-2.81516e-10
-3.03479e-10
-3.25448e-10
-3.47384e-10
-3.69356e-10
-3.91305e-10
-4.13269e-10
-4.35254e-10
-4.57217e-10
-4.7918e-10
-5.01131e-10
-5.23086e-10
-5.4505e-10
-5.67021e-10
-5.88993e-10
-6.10946e-10
-6.32908e-10
-6.54881e-10
-6.7685e-10
-6.98824e-10
-7.20784e-10
-7.42717e-10
-7.64705e-10
-7.86662e-10
-8.0863e-10
-8.30597e-10
-8.52564e-10
-8.74517e-10
-8.96489e-10
-9.18446e-10
-9.40416e-10
-9.62378e-10
-9.84337e-10
-1.00632e-09
-1.02828e-09
-1.05021e-09
-1.07219e-09
-1.09417e-09
-1.11613e-09
-1.13808e-09
-1.16005e-09
-1.18203e-09
-1.20402e-09
-1.226e-09
-1.24798e-09
-1.27e-09
-1.29202e-09
-1.31408e-09
-1.3362e-09
-1.35838e-09
-1.38067e-09
-1.40311e-09
-1.42576e-09
-1.44872e-09
-1.47213e-09
-1.49618e-09
-1.52114e-09
-1.54738e-09
-1.57545e-09
-1.60607e-09
-1.64029e-09
-1.67946e-09
-1.72541e-09
-1.78056e-09
-1.84804e-09
-1.93162e-09
-2.03469e-09
-2.15522e-09
-2.31395e-09
-2.54579e-09
1.05109e-10
-2.25938e-11
-3.762e-11
-5.99912e-11
-8.27247e-11
-1.05223e-10
-1.27459e-10
-1.49621e-10
-1.71666e-10
-1.93655e-10
-2.15663e-10
-2.37616e-10
-2.5956e-10
-2.81542e-10
-3.03484e-10
-3.25441e-10
-3.47394e-10
-3.69362e-10
-3.91337e-10
-4.13292e-10
-4.35232e-10
-4.57195e-10
-4.79161e-10
-5.01133e-10
-5.23095e-10
-5.45067e-10
-5.67034e-10
-5.88984e-10
-6.10963e-10
-6.32928e-10
-6.54884e-10
-6.76844e-10
-6.98804e-10
-7.20763e-10
-7.42763e-10
-7.64702e-10
-7.86664e-10
-8.08629e-10
-8.30592e-10
-8.52541e-10
-8.7452e-10
-8.96484e-10
-9.18447e-10
-9.4041e-10
-9.62378e-10
-9.84347e-10
-1.0063e-09
-1.02827e-09
-1.05025e-09
-1.07222e-09
-1.09416e-09
-1.11613e-09
-1.13811e-09
-1.16007e-09
-1.18203e-09
-1.204e-09
-1.22599e-09
-1.24799e-09
-1.26998e-09
-1.29201e-09
-1.31409e-09
-1.33618e-09
-1.35837e-09
-1.38065e-09
-1.40307e-09
-1.42572e-09
-1.44867e-09
-1.47206e-09
-1.49609e-09
-1.52102e-09
-1.54721e-09
-1.57522e-09
-1.60578e-09
-1.63989e-09
-1.67893e-09
-1.72473e-09
-1.77965e-09
-1.84689e-09
-1.93017e-09
-2.03347e-09
-2.15636e-09
-2.31119e-09
-2.54362e-09
1.08532e-10
-2.83511e-11
-3.88938e-11
-6.00559e-11
-8.27065e-11
-1.05172e-10
-1.27473e-10
-1.49585e-10
-1.71665e-10
-1.93675e-10
-2.15634e-10
-2.37619e-10
-2.59581e-10
-2.81506e-10
-3.03484e-10
-3.25437e-10
-3.47392e-10
-3.69344e-10
-3.91303e-10
-4.13266e-10
-4.35248e-10
-4.57205e-10
-4.79172e-10
-5.0113e-10
-5.23095e-10
-5.45057e-10
-5.67013e-10
-5.8899e-10
-6.10943e-10
-6.32905e-10
-6.54879e-10
-6.76844e-10
-6.9881e-10
-7.20786e-10
-7.42719e-10
-7.64697e-10
-7.8668e-10
-8.08629e-10
-8.30598e-10
-8.52561e-10
-8.74519e-10
-8.96487e-10
-9.18449e-10
-9.40415e-10
-9.62377e-10
-9.84345e-10
-1.00631e-09
-1.02827e-09
-1.05022e-09
-1.07218e-09
-1.09417e-09
-1.11613e-09
-1.13807e-09
-1.16005e-09
-1.18202e-09
-1.20401e-09
-1.22598e-09
-1.24797e-09
-1.26998e-09
-1.29199e-09
-1.31404e-09
-1.33616e-09
-1.35834e-09
-1.38062e-09
-1.40304e-09
-1.42567e-09
-1.4486e-09
-1.47197e-09
-1.49596e-09
-1.52085e-09
-1.54699e-09
-1.57492e-09
-1.60537e-09
-1.63934e-09
-1.6782e-09
-1.72373e-09
-1.77835e-09
-1.84523e-09
-1.92797e-09
-2.02957e-09
-2.1461e-09
-2.30364e-09
-2.54074e-09
1.19957e-10
-2.32197e-11
-3.8211e-11
-5.99853e-11
-8.26696e-11
-1.05181e-10
-1.2744e-10
-1.49594e-10
-1.71657e-10
-1.93654e-10
-2.15657e-10
-2.3761e-10
-2.59561e-10
-2.8154e-10
-3.03482e-10
-3.25446e-10
-3.47393e-10
-3.69369e-10
-3.91338e-10
-4.13294e-10
-4.35237e-10
-4.57206e-10
-4.79167e-10
-5.01131e-10
-5.23097e-10
-5.4506e-10
-5.67038e-10
-5.88989e-10
-6.10963e-10
-6.32929e-10
-6.54889e-10
-6.76847e-10
-6.98819e-10
-7.20763e-10
-7.42756e-10
-7.64718e-10
-7.86657e-10
-8.08638e-10
-8.30607e-10
-8.52558e-10
-8.7453e-10
-8.96488e-10
-9.18466e-10
-9.40415e-10
-9.62391e-10
-9.84343e-10
-1.00631e-09
-1.02828e-09
-1.05024e-09
-1.07221e-09
-1.09416e-09
-1.11613e-09
-1.13811e-09
-1.16006e-09
-1.18203e-09
-1.204e-09
-1.22598e-09
-1.24797e-09
-1.26997e-09
-1.292e-09
-1.31406e-09
-1.33616e-09
-1.35832e-09
-1.38059e-09
-1.403e-09
-1.42561e-09
-1.44852e-09
-1.47187e-09
-1.49581e-09
-1.5207e-09
-1.5467e-09
-1.57453e-09
-1.60485e-09
-1.63864e-09
-1.67727e-09
-1.72247e-09
-1.77666e-09
-1.84305e-09
-1.92516e-09
-2.02637e-09
-2.14583e-09
-2.28672e-09
-2.54111e-09
1.45844e-10
-3.00051e-11
-4.05874e-11
-5.99871e-11
-8.26049e-11
-1.05122e-10
-1.27419e-10
-1.49564e-10
-1.71637e-10
-1.93653e-10
-2.15628e-10
-2.3761e-10
-2.59569e-10
-2.81505e-10
-3.03479e-10
-3.25435e-10
-3.4739e-10
-3.69346e-10
-3.91302e-10
-4.13267e-10
-4.35241e-10
-4.57201e-10
-4.79162e-10
-5.01134e-10
-5.23092e-10
-5.4506e-10
-5.67014e-10
-5.88986e-10
-6.10948e-10
-6.32906e-10
-6.54871e-10
-6.76841e-10
-6.98806e-10
-7.20784e-10
-7.42728e-10
-7.64693e-10
-7.86675e-10
-8.08634e-10
-8.30589e-10
-8.52568e-10
-8.74526e-10
-8.96486e-10
-9.18452e-10
-9.40414e-10
-9.62374e-10
-9.84344e-10
-1.00631e-09
-1.02826e-09
-1.05023e-09
-1.07218e-09
-1.09416e-09
-1.11612e-09
-1.13807e-09
-1.16005e-09
-1.18202e-09
-1.204e-09
-1.22597e-09
-1.24795e-09
-1.26996e-09
-1.29197e-09
-1.31403e-09
-1.33612e-09
-1.35829e-09
-1.38054e-09
-1.40294e-09
-1.42554e-09
-1.44843e-09
-1.47173e-09
-1.49563e-09
-1.52032e-09
-1.54637e-09
-1.57408e-09
-1.60423e-09
-1.63779e-09
-1.6761e-09
-1.7209e-09
-1.77459e-09
-1.84034e-09
-1.92168e-09
-2.01903e-09
-2.13725e-09
-2.26113e-09
-1.30288e-11
-4.04237e-11
-5.97305e-11
-8.25092e-11
-1.05093e-10
-1.27399e-10
-1.49557e-10
-1.71632e-10
-1.93649e-10
-2.15639e-10
-2.37602e-10
-2.59562e-10
-2.81533e-10
-3.03478e-10
-3.25441e-10
-3.47402e-10
-3.69361e-10
-3.91328e-10
-4.13289e-10
-4.35246e-10
-4.57207e-10
-4.79173e-10
-5.0113e-10
-5.23101e-10
-5.4506e-10
-5.67035e-10
-5.88993e-10
-6.10955e-10
-6.32926e-10
-6.54893e-10
-6.76849e-10
-6.98815e-10
-7.20771e-10
-7.42751e-10
-7.64715e-10
-7.86666e-10
-8.08636e-10
-8.3061e-10
-8.52566e-10
-8.74532e-10
-8.965e-10
-9.18461e-10
-9.40422e-10
-9.62391e-10
-9.84344e-10
-1.00631e-09
-1.02828e-09
-1.05024e-09
-1.07221e-09
-1.09416e-09
-1.11613e-09
-1.1381e-09
-1.16005e-09
-1.18202e-09
-1.20399e-09
-1.22597e-09
-1.24796e-09
-1.26995e-09
-1.29198e-09
-1.31402e-09
-1.33612e-09
-1.35827e-09
-1.38052e-09
-1.4029e-09
-1.42547e-09
-1.44833e-09
-1.47161e-09
-1.49545e-09
-1.52017e-09
-1.54602e-09
-1.57359e-09
-1.60356e-09
-1.63687e-09
-1.67484e-09
-1.7192e-09
-1.7723e-09
-1.83738e-09
-1.91829e-09
-2.01391e-09
-2.14879e-09
-3.00347e-13
-3.96155e-11
-5.93671e-11
-8.23386e-11
-1.04988e-10
-1.27333e-10
-1.49517e-10
-1.71603e-10
-1.93628e-10
-2.15617e-10
-2.37598e-10
-2.59561e-10
-2.81502e-10
-3.03474e-10
-3.25437e-10
-3.47386e-10
-3.69353e-10
-3.91309e-10
-4.13274e-10
-4.35236e-10
-4.57203e-10
-4.79159e-10
-5.01136e-10
-5.23094e-10
-5.45059e-10
-5.67019e-10
-5.88985e-10
-6.10956e-10
-6.3291e-10
-6.54868e-10
-6.76849e-10
-6.98805e-10
-7.20776e-10
-7.42734e-10
-7.64698e-10
-7.86668e-10
-8.08636e-10
-8.30593e-10
-8.52566e-10
-8.74526e-10
-8.96486e-10
-9.18455e-10
-9.40413e-10
-9.62372e-10
-9.84341e-10
-1.00631e-09
-1.02826e-09
-1.05023e-09
-1.07219e-09
-1.09416e-09
-1.11612e-09
-1.13808e-09
-1.16005e-09
-1.18201e-09
-1.20399e-09
-1.22596e-09
-1.24794e-09
-1.26994e-09
-1.29195e-09
-1.314e-09
-1.33608e-09
-1.35822e-09
-1.38045e-09
-1.40283e-09
-1.42537e-09
-1.4482e-09
-1.47142e-09
-1.49521e-09
-1.51979e-09
-1.54556e-09
-1.57296e-09
-1.60268e-09
-1.63568e-09
-1.67321e-09
-1.71704e-09
-1.76894e-09
-1.83342e-09
-1.91323e-09
-2.00647e-09
-2.15531e-09
-1.6171e-11
-3.18562e-11
-5.72701e-11
-8.14924e-11
-1.04573e-10
-1.27112e-10
-1.49385e-10
-1.71512e-10
-1.93575e-10
-2.15588e-10
-2.37574e-10
-2.59547e-10
-2.81508e-10
-3.03477e-10
-3.25431e-10
-3.4739e-10
-3.69355e-10
-3.91316e-10
-4.13275e-10
-4.35237e-10
-4.57208e-10
-4.79169e-10
-5.01123e-10
-5.23097e-10
-5.45057e-10
-5.67029e-10
-5.88992e-10
-6.10951e-10
-6.3291e-10
-6.54885e-10
-6.76847e-10
-6.98811e-10
-7.20767e-10
-7.42743e-10
-7.64709e-10
-7.8667e-10
-8.0863e-10
-8.30594e-10
-8.52562e-10
-8.74529e-10
-8.96488e-10
-9.18453e-10
-9.40419e-10
-9.62379e-10
-9.84351e-10
-1.00631e-09
-1.02828e-09
-1.05024e-09
-1.07221e-09
-1.09417e-09
-1.11614e-09
-1.13811e-09
-1.16008e-09
-1.18205e-09
-1.20403e-09
-1.22602e-09
-1.24801e-09
-1.27001e-09
-1.29204e-09
-1.31411e-09
-1.33622e-09
-1.35838e-09
-1.38062e-09
-1.40301e-09
-1.42558e-09
-1.4484e-09
-1.47159e-09
-1.49532e-09
-1.51979e-09
-1.54533e-09
-1.57241e-09
-1.60157e-09
-1.63369e-09
-1.67007e-09
-1.7121e-09
-1.7624e-09
-1.82383e-09
-1.90136e-09
-1.99878e-09
-2.11387e-09
1.4476e-10
-2.33179e-11
-3.35988e-11
-5.78966e-11
-8.17604e-11
-1.04721e-10
-1.27199e-10
-1.49445e-10
-1.71552e-10
-1.93599e-10
-2.15609e-10
-2.37583e-10
-2.59551e-10
-2.81524e-10
-3.03473e-10
-3.25441e-10
-3.47407e-10
-3.69358e-10
-3.91318e-10
-4.13286e-10
-4.35247e-10
-4.57202e-10
-4.79171e-10
-5.01144e-10
-5.23103e-10
-5.45069e-10
-5.67028e-10
-5.88992e-10
-6.10962e-10
-6.32935e-10
-6.54885e-10
-6.76852e-10
-6.98819e-10
-7.20787e-10
-7.42744e-10
-7.647e-10
-7.8667e-10
-8.08647e-10
-8.30603e-10
-8.52563e-10
-8.74536e-10
-8.96499e-10
-9.18457e-10
-9.4042e-10
-9.62385e-10
-9.84357e-10
-1.00632e-09
-1.02828e-09
-1.05024e-09
-1.07221e-09
-1.09419e-09
-1.11614e-09
-1.13811e-09
-1.16008e-09
-1.18206e-09
-1.20404e-09
-1.22602e-09
-1.24801e-09
-1.27003e-09
-1.29207e-09
-1.31412e-09
-1.33623e-09
-1.35839e-09
-1.38065e-09
-1.40306e-09
-1.42564e-09
-1.44851e-09
-1.47174e-09
-1.49555e-09
-1.52016e-09
-1.54586e-09
-1.57306e-09
-1.60251e-09
-1.63501e-09
-1.67196e-09
-1.71498e-09
-1.76612e-09
-1.82852e-09
-1.90683e-09
-2.00521e-09
-2.11472e-09
-2.21562e-09
1.30726e-10
-1.25089e-11
-3.42871e-11
-5.83222e-11
-8.19417e-11
-1.048e-10
-1.27242e-10
-1.49453e-10
-1.71562e-10
-1.93607e-10
-2.15603e-10
-2.37596e-10
-2.59555e-10
-2.81507e-10
-3.03487e-10
-3.25434e-10
-3.47384e-10
-3.69356e-10
-3.91319e-10
-4.13274e-10
-4.35241e-10
-4.57212e-10
-4.79168e-10
-5.01123e-10
-5.23097e-10
-5.45056e-10
-5.67031e-10
-5.88992e-10
-6.10949e-10
-6.32907e-10
-6.54888e-10
-6.76852e-10
-6.98803e-10
-7.20772e-10
-7.42741e-10
-7.64716e-10
-7.86677e-10
-8.08615e-10
-8.30597e-10
-8.52569e-10
-8.74527e-10
-8.96481e-10
-9.18458e-10
-9.40423e-10
-9.62383e-10
-9.84345e-10
-1.00631e-09
-1.02828e-09
-1.05024e-09
-1.07222e-09
-1.09416e-09
-1.11614e-09
-1.1381e-09
-1.16008e-09
-1.18205e-09
-1.20403e-09
-1.22602e-09
-1.24801e-09
-1.27001e-09
-1.29205e-09
-1.31411e-09
-1.33624e-09
-1.35841e-09
-1.38067e-09
-1.40308e-09
-1.42569e-09
-1.44856e-09
-1.47186e-09
-1.4957e-09
-1.52037e-09
-1.54616e-09
-1.5736e-09
-1.6033e-09
-1.63605e-09
-1.6735e-09
-1.71712e-09
-1.7692e-09
-1.83268e-09
-1.91201e-09
-2.01153e-09
-2.13396e-09
-2.22734e-09
-2.45623e-09
1.47763e-10
-1.36787e-11
-3.52358e-11
-5.87521e-11
-8.21229e-11
-1.04884e-10
-1.27296e-10
-1.49499e-10
-1.71584e-10
-1.9362e-10
-2.1562e-10
-2.37601e-10
-2.59561e-10
-2.81515e-10
-3.03472e-10
-3.25449e-10
-3.47411e-10
-3.69356e-10
-3.91321e-10
-4.13291e-10
-4.35247e-10
-4.57189e-10
-4.79168e-10
-5.01154e-10
-5.23102e-10
-5.45065e-10
-5.67027e-10
-5.88984e-10
-6.10968e-10
-6.32936e-10
-6.54881e-10
-6.76854e-10
-6.98819e-10
-7.20788e-10
-7.42742e-10
-7.64701e-10
-7.86662e-10
-8.08658e-10
-8.30608e-10
-8.52552e-10
-8.74537e-10
-8.96502e-10
-9.18452e-10
-9.40422e-10
-9.6238e-10
-9.84358e-10
-1.00632e-09
-1.02828e-09
-1.05024e-09
-1.0722e-09
-1.09419e-09
-1.11614e-09
-1.13811e-09
-1.16008e-09
-1.18206e-09
-1.20403e-09
-1.22602e-09
-1.24801e-09
-1.27004e-09
-1.29207e-09
-1.31413e-09
-1.33622e-09
-1.35841e-09
-1.3807e-09
-1.40311e-09
-1.42575e-09
-1.44865e-09
-1.47195e-09
-1.49587e-09
-1.52061e-09
-1.54656e-09
-1.5741e-09
-1.60403e-09
-1.63737e-09
-1.67504e-09
-1.71916e-09
-1.77207e-09
-1.83648e-09
-1.91672e-09
-2.01691e-09
-2.13954e-09
-2.1825e-09
-2.48519e-09
1.06505e-10
-9.47337e-12
-3.55285e-11
-5.91267e-11
-8.23085e-11
-1.04977e-10
-1.27347e-10
-1.4954e-10
-1.71605e-10
-1.93644e-10
-2.15636e-10
-2.3761e-10
-2.59562e-10
-2.81529e-10
-3.03489e-10
-3.25438e-10
-3.47385e-10
-3.69356e-10
-3.91325e-10
-4.1328e-10
-4.35242e-10
-4.57225e-10
-4.79169e-10
-5.01124e-10
-5.23108e-10
-5.45061e-10
-5.6703e-10
-5.88993e-10
-6.10951e-10
-6.32915e-10
-6.54891e-10
-6.76849e-10
-6.98816e-10
-7.20773e-10
-7.4274e-10
-7.64714e-10
-7.86686e-10
-8.08625e-10
-8.30603e-10
-8.52574e-10
-8.74532e-10
-8.96485e-10
-9.18467e-10
-9.40423e-10
-9.62383e-10
-9.84353e-10
-1.00631e-09
-1.02827e-09
-1.05025e-09
-1.07221e-09
-1.09417e-09
-1.11615e-09
-1.1381e-09
-1.16008e-09
-1.18205e-09
-1.20404e-09
-1.22602e-09
-1.24801e-09
-1.27002e-09
-1.29205e-09
-1.31412e-09
-1.33625e-09
-1.35843e-09
-1.3807e-09
-1.40315e-09
-1.42577e-09
-1.44869e-09
-1.47205e-09
-1.49599e-09
-1.5208e-09
-1.54678e-09
-1.57455e-09
-1.60465e-09
-1.63817e-09
-1.6763e-09
-1.72088e-09
-1.77418e-09
-1.8396e-09
-1.92089e-09
-2.02272e-09
-2.14964e-09
-2.23346e-09
-2.49537e-09
8.88719e-11
-1.24535e-11
-3.69922e-11
-5.9638e-11
-8.25375e-11
-1.05107e-10
-1.27455e-10
-1.49584e-10
-1.71668e-10
-1.93669e-10
-2.15655e-10
-2.37642e-10
-2.59586e-10
-2.81519e-10
-3.03491e-10
-3.25445e-10
-3.47422e-10
-3.69374e-10
-3.91328e-10
-4.13289e-10
-4.35253e-10
-4.57187e-10
-4.79195e-10
-5.01166e-10
-5.23096e-10
-5.45066e-10
-5.67038e-10
-5.88987e-10
-6.1098e-10
-6.32934e-10
-6.54892e-10
-6.76854e-10
-6.98834e-10
-7.20793e-10
-7.42746e-10
-7.64703e-10
-7.86684e-10
-8.08657e-10
-8.30615e-10
-8.52562e-10
-8.74556e-10
-8.96508e-10
-9.18451e-10
-9.40439e-10
-9.62393e-10
-9.84363e-10
-1.00633e-09
-1.02829e-09
-1.05024e-09
-1.07222e-09
-1.09417e-09
-1.11614e-09
-1.13811e-09
-1.16008e-09
-1.18206e-09
-1.20402e-09
-1.22603e-09
-1.24802e-09
-1.27004e-09
-1.29207e-09
-1.31414e-09
-1.33624e-09
-1.35844e-09
-1.38072e-09
-1.40315e-09
-1.42581e-09
-1.44874e-09
-1.47213e-09
-1.49611e-09
-1.52097e-09
-1.54707e-09
-1.57487e-09
-1.60521e-09
-1.63896e-09
-1.67747e-09
-1.72253e-09
-1.77646e-09
-1.84247e-09
-1.92439e-09
-2.02629e-09
-2.15547e-09
-2.28916e-09
-2.49792e-09
8.02025e-11
-1.60829e-11
-3.81091e-11
-5.99546e-11
-8.26935e-11
-1.05184e-10
-1.27491e-10
-1.4961e-10
-1.71674e-10
-1.93684e-10
-2.15666e-10
-2.37617e-10
-2.5958e-10
-2.81544e-10
-3.03498e-10
-3.25447e-10
-3.47392e-10
-3.69355e-10
-3.91328e-10
-4.13282e-10
-4.35238e-10
-4.57221e-10
-4.79154e-10
-5.01122e-10
-5.23118e-10
-5.45062e-10
-5.67025e-10
-5.88997e-10
-6.10946e-10
-6.32924e-10
-6.54888e-10
-6.76856e-10
-6.98807e-10
-7.20775e-10
-7.42745e-10
-7.64711e-10
-7.86676e-10
-8.08642e-10
-8.30611e-10
-8.52561e-10
-8.74534e-10
-8.96499e-10
-9.18465e-10
-9.40431e-10
-9.62369e-10
-9.84353e-10
-1.00631e-09
-1.02828e-09
-1.05026e-09
-1.0722e-09
-1.09417e-09
-1.11615e-09
-1.13811e-09
-1.16008e-09
-1.18204e-09
-1.20404e-09
-1.226e-09
-1.24799e-09
-1.27002e-09
-1.29206e-09
-1.31413e-09
-1.33625e-09
-1.35843e-09
-1.38072e-09
-1.40316e-09
-1.4258e-09
-1.44877e-09
-1.47215e-09
-1.49618e-09
-1.52108e-09
-1.54724e-09
-1.57517e-09
-1.60562e-09
-1.63955e-09
-1.67831e-09
-1.72371e-09
-1.77809e-09
-1.84465e-09
-1.92699e-09
-2.02862e-09
-2.15689e-09
-2.31092e-09
-2.50218e-09
5.1845e-11
-1.46785e-11
-3.75084e-11
-6.00919e-11
-8.27774e-11
-1.0525e-10
-1.27522e-10
-1.49639e-10
-1.71691e-10
-1.93699e-10
-2.15675e-10
-2.37643e-10
-2.59603e-10
-2.81539e-10
-3.03487e-10
-3.25457e-10
-3.47417e-10
-3.6938e-10
-3.91329e-10
-4.13286e-10
-4.35249e-10
-4.57211e-10
-4.79198e-10
-5.01154e-10
-5.2309e-10
-5.45068e-10
-5.67037e-10
-5.88991e-10
-6.10982e-10
-6.32928e-10
-6.54898e-10
-6.76846e-10
-6.98836e-10
-7.20792e-10
-7.4274e-10
-7.64711e-10
-7.86686e-10
-8.08638e-10
-8.30605e-10
-8.52575e-10
-8.74534e-10
-8.96495e-10
-9.18454e-10
-9.40432e-10
-9.62396e-10
-9.84362e-10
-1.00633e-09
-1.02829e-09
-1.05023e-09
-1.07221e-09
-1.09419e-09
-1.11615e-09
-1.1381e-09
-1.16007e-09
-1.18205e-09
-1.20403e-09
-1.22603e-09
-1.24802e-09
-1.27003e-09
-1.29205e-09
-1.31411e-09
-1.33624e-09
-1.35843e-09
-1.38072e-09
-1.40316e-09
-1.42584e-09
-1.44878e-09
-1.47222e-09
-1.49623e-09
-1.52118e-09
-1.54736e-09
-1.57539e-09
-1.60593e-09
-1.63999e-09
-1.67894e-09
-1.72462e-09
-1.77934e-09
-1.84628e-09
-1.92915e-09
-2.03224e-09
-2.16166e-09
-2.36038e-09
-2.50994e-09
4.95874e-11
-1.75374e-11
-3.83722e-11
-6.02352e-11
-8.28506e-11
-1.05288e-10
-1.27552e-10
-1.4964e-10
-1.71702e-10
-1.93701e-10
-2.15684e-10
-2.37612e-10
-2.5959e-10
-2.81543e-10
-3.03518e-10
-3.25437e-10
-3.47417e-10
-3.69351e-10
-3.91323e-10
-4.1329e-10
-4.35245e-10
-4.57204e-10
-4.79159e-10
-5.01129e-10
-5.23119e-10
-5.45068e-10
-5.67017e-10
-5.89e-10
-6.10948e-10
-6.32928e-10
-6.5489e-10
-6.76858e-10
-6.98803e-10
-7.2078e-10
-7.42758e-10
-7.64695e-10
-7.86679e-10
-8.08636e-10
-8.30603e-10
-8.52568e-10
-8.74531e-10
-8.96492e-10
-9.18457e-10
-9.40431e-10
-9.62387e-10
-9.84355e-10
-1.0063e-09
-1.02827e-09
-1.05026e-09
-1.07221e-09
-1.09416e-09
-1.11613e-09
-1.13812e-09
-1.16009e-09
-1.18205e-09
-1.20402e-09
-1.22599e-09
-1.24798e-09
-1.27001e-09
-1.29205e-09
-1.31413e-09
-1.33623e-09
-1.35842e-09
-1.38072e-09
-1.40315e-09
-1.42581e-09
-1.44879e-09
-1.47218e-09
-1.49626e-09
-1.52119e-09
-1.54745e-09
-1.57549e-09
-1.60611e-09
-1.64027e-09
-1.67934e-09
-1.72518e-09
-1.78016e-09
-1.84736e-09
-1.9305e-09
-2.03325e-09
-2.16172e-09
-2.3624e-09
-2.51549e-09
4.86514e-11
-1.57949e-11
-3.7692e-11
-6.02356e-11
-8.28962e-11
-1.05314e-10
-1.27554e-10
-1.49682e-10
-1.717e-10
-1.93712e-10
-2.15662e-10
-2.37651e-10
-2.59606e-10
-2.8154e-10
-3.03478e-10
-3.2546e-10
-3.47411e-10
-3.69382e-10
-3.91319e-10
-4.13283e-10
-4.35245e-10
-4.57231e-10
-4.79191e-10
-5.01138e-10
-5.23092e-10
-5.45053e-10
-5.67047e-10
-5.88993e-10
-6.10974e-10
-6.32924e-10
-6.5489e-10
-6.76847e-10
-6.98837e-10
-7.20791e-10
-7.42734e-10
-7.64707e-10
-7.8668e-10
-8.08634e-10
-8.30601e-10
-8.52563e-10
-8.74529e-10
-8.9649e-10
-9.18457e-10
-9.40424e-10
-9.62377e-10
-9.84352e-10
-1.00632e-09
-1.02829e-09
-1.05023e-09
-1.0722e-09
-1.09419e-09
-1.11615e-09
-1.1381e-09
-1.16006e-09
-1.18203e-09
-1.20403e-09
-1.22603e-09
-1.248e-09
-1.27002e-09
-1.29204e-09
-1.31409e-09
-1.33623e-09
-1.35841e-09
-1.38071e-09
-1.40315e-09
-1.42582e-09
-1.44876e-09
-1.47221e-09
-1.49624e-09
-1.52122e-09
-1.54744e-09
-1.57553e-09
-1.60617e-09
-1.64039e-09
-1.67952e-09
-1.72546e-09
-1.78052e-09
-1.8479e-09
-1.93124e-09
-2.03486e-09
-2.16389e-09
-2.36493e-09
-2.51906e-09
4.77613e-11
-1.69112e-11
-3.80943e-11
-6.02971e-11
-8.2905e-11
-1.05335e-10
-1.27572e-10
-1.49646e-10
-1.71709e-10
-1.93712e-10
-2.15689e-10
-2.37626e-10
-2.59592e-10
-2.81548e-10
-3.03518e-10
-3.25434e-10
-3.47427e-10
-3.69349e-10
-3.91333e-10
-4.13296e-10
-4.35243e-10
-4.57191e-10
-4.79161e-10
-5.01147e-10
-5.23117e-10
-5.45081e-10
-5.67013e-10
-5.89001e-10
-6.10962e-10
-6.32932e-10
-6.54896e-10
-6.76855e-10
-6.98803e-10
-7.20776e-10
-7.42759e-10
-7.64698e-10
-7.86689e-10
-8.08627e-10
-8.30597e-10
-8.52561e-10
-8.74529e-10
-8.96482e-10
-9.18453e-10
-9.40423e-10
-9.62388e-10
-9.84349e-10
-1.00631e-09
-1.02827e-09
-1.05027e-09
-1.07222e-09
-1.09416e-09
-1.11614e-09
-1.13812e-09
-1.16008e-09
-1.18206e-09
-1.20401e-09
-1.22597e-09
-1.24798e-09
-1.27e-09
-1.29204e-09
-1.31412e-09
-1.33621e-09
-1.3584e-09
-1.38069e-09
-1.40312e-09
-1.42578e-09
-1.44875e-09
-1.47215e-09
-1.49622e-09
-1.52116e-09
-1.5474e-09
-1.57547e-09
-1.60613e-09
-1.6403e-09
-1.67946e-09
-1.72539e-09
-1.7805e-09
-1.84786e-09
-1.93121e-09
-2.03458e-09
-2.16359e-09
-2.36507e-09
-2.5203e-09
4.77272e-11
-1.69109e-11
-3.80965e-11
-6.0284e-11
-8.29111e-11
-1.05324e-10
-1.27569e-10
-1.4968e-10
-1.71705e-10
-1.9371e-10
-2.15669e-10
-2.37641e-10
-2.59609e-10
-2.81537e-10
-3.03475e-10
-3.25448e-10
-3.47414e-10
-3.69377e-10
-3.91302e-10
-4.13276e-10
-4.35252e-10
-4.57239e-10
-4.79188e-10
-5.01129e-10
-5.23095e-10
-5.4505e-10
-5.67042e-10
-5.88996e-10
-6.10958e-10
-6.3292e-10
-6.54879e-10
-6.76855e-10
-6.98829e-10
-7.20776e-10
-7.42743e-10
-7.64717e-10
-7.8666e-10
-8.08635e-10
-8.30595e-10
-8.52567e-10
-8.7452e-10
-8.96495e-10
-9.1845e-10
-9.40425e-10
-9.62383e-10
-9.84352e-10
-1.00631e-09
-1.02829e-09
-1.05023e-09
-1.07219e-09
-1.09418e-09
-1.11614e-09
-1.13809e-09
-1.16006e-09
-1.18202e-09
-1.20402e-09
-1.22602e-09
-1.24799e-09
-1.27e-09
-1.29202e-09
-1.31407e-09
-1.3362e-09
-1.35838e-09
-1.38067e-09
-1.4031e-09
-1.42576e-09
-1.4487e-09
-1.47211e-09
-1.49613e-09
-1.52108e-09
-1.5473e-09
-1.57532e-09
-1.60593e-09
-1.64007e-09
-1.67916e-09
-1.725e-09
-1.78e-09
-1.84727e-09
-1.93049e-09
-2.03365e-09
-2.16257e-09
-2.36398e-09
-2.51948e-09
4.86199e-11
-1.59647e-11
-3.77326e-11
-6.02494e-11
-8.28847e-11
-1.05324e-10
-1.27549e-10
-1.49666e-10
-1.71686e-10
-1.93706e-10
-2.15682e-10
-2.37634e-10
-2.59592e-10
-2.8156e-10
-3.03501e-10
-3.25439e-10
-3.47428e-10
-3.69359e-10
-3.91329e-10
-4.13299e-10
-4.35241e-10
-4.57194e-10
-4.79162e-10
-5.01147e-10
-5.23116e-10
-5.4508e-10
-5.67021e-10
-5.88996e-10
-6.10955e-10
-6.32935e-10
-6.54907e-10
-6.76857e-10
-6.9881e-10
-7.20773e-10
-7.42743e-10
-7.64709e-10
-7.86699e-10
-8.08633e-10
-8.30594e-10
-8.52555e-10
-8.7453e-10
-8.96494e-10
-9.18454e-10
-9.40423e-10
-9.62384e-10
-9.84353e-10
-1.00631e-09
-1.02827e-09
-1.05026e-09
-1.07222e-09
-1.09416e-09
-1.11613e-09
-1.13812e-09
-1.16008e-09
-1.18206e-09
-1.20401e-09
-1.22597e-09
-1.24799e-09
-1.26999e-09
-1.29202e-09
-1.3141e-09
-1.33618e-09
-1.35837e-09
-1.38064e-09
-1.40307e-09
-1.4257e-09
-1.44866e-09
-1.47203e-09
-1.49604e-09
-1.52095e-09
-1.54713e-09
-1.5751e-09
-1.60562e-09
-1.63965e-09
-1.67862e-09
-1.72428e-09
-1.77908e-09
-1.8461e-09
-1.92904e-09
-2.03225e-09
-2.16116e-09
-2.36173e-09
-2.51704e-09
4.95456e-11
-1.74874e-11
-3.83796e-11
-6.02329e-11
-8.28435e-11
-1.0528e-10
-1.2754e-10
-1.49651e-10
-1.71692e-10
-1.93695e-10
-2.15681e-10
-2.37622e-10
-2.59596e-10
-2.81527e-10
-3.03482e-10
-3.25439e-10
-3.47409e-10
-3.69369e-10
-3.91303e-10
-4.13272e-10
-4.35248e-10
-4.57228e-10
-4.79183e-10
-5.01133e-10
-5.23091e-10
-5.45054e-10
-5.67035e-10
-5.89e-10
-6.10965e-10
-6.32917e-10
-6.54863e-10
-6.76857e-10
-6.98815e-10
-7.20798e-10
-7.4274e-10
-7.64711e-10
-7.86672e-10
-8.08636e-10
-8.30593e-10
-8.52573e-10
-8.74527e-10