/*--------------------------------*- C++ -*----------------------------------*\
| =========                 |                                                 |
| \\      /  F ield         | OpenFOAM: The Open Source CFD Toolbox           |
|  \\    /   O peration     | Version:  v1906                                 |
|   \\  /    A nd           | Web:      www.OpenFOAM.com                      |
|    \\/     M anipulation  |                                                 |
\*---------------------------------------------------------------------------*/
FoamFile
{
    version     2.0;
    format      ascii;
    class       volScalarField;
    location    "0.15";
    object      p;
}
// * * * * * * * * * * * * * * * * * * * * * * * * * * * * * * * * * * * * * //

dimensions      [0 2 -2 0 0 0 0];


internalField   nonuniform List<scalar> 
243374
(
-1.54721e-15
-1.5493e-09
-9.87974e-10
-9.83133e-10
-1.02293e-09
-1.06362e-09
-1.09787e-09
-1.14325e-09
-1.18264e-09
-1.22079e-09
-1.25126e-09
-1.28885e-09
-1.32237e-09
-1.35163e-09
-1.37964e-09
-1.40267e-09
-1.42605e-09
-1.44961e-09
-1.46967e-09
-1.49602e-09
-1.51868e-09
-1.54001e-09
-1.5648e-09
-1.58575e-09
-1.60539e-09
-1.63149e-09
-1.64786e-09
-1.67298e-09
-1.69585e-09
-1.71804e-09
-1.73829e-09
-1.76134e-09
-1.78378e-09
-1.80402e-09
-1.82782e-09
-1.85012e-09
-1.86928e-09
-1.89554e-09
-1.91405e-09
-1.93553e-09
-1.95779e-09
-1.98236e-09
-2.001e-09
-2.02635e-09
-2.04702e-09
-2.0722e-09
-2.09103e-09
-2.11245e-09
-2.13733e-09
-2.15906e-09
-2.18244e-09
-2.20253e-09
-2.22304e-09
-2.24592e-09
-2.26523e-09
-2.29035e-09
-2.31391e-09
-2.33504e-09
-2.35474e-09
-2.3774e-09
-2.39914e-09
-2.42192e-09
-2.44749e-09
-2.46993e-09
-2.49675e-09
-2.52293e-09
-2.55522e-09
-2.58218e-09
-2.61615e-09
-2.65906e-09
-2.7012e-09
-2.75295e-09
-2.81689e-09
-2.89752e-09
-2.99576e-09
-3.12049e-09
-3.28574e-09
-3.46162e-09
-3.1332e-09
-5.04933e-09
-1.99885e-09
-1.25082e-09
-9.99541e-10
-9.96829e-10
-1.02914e-09
-1.06837e-09
-1.1102e-09
-1.14928e-09
-1.18825e-09
-1.22391e-09
-1.26194e-09
-1.29771e-09
-1.32963e-09
-1.35831e-09
-1.38531e-09
-1.40982e-09
-1.43406e-09
-1.4572e-09
-1.47766e-09
-1.50247e-09
-1.52687e-09
-1.54559e-09
-1.56949e-09
-1.59123e-09
-1.61388e-09
-1.63721e-09
-1.65873e-09
-1.68013e-09
-1.70167e-09
-1.72419e-09
-1.74722e-09
-1.76735e-09
-1.78872e-09
-1.81203e-09
-1.83403e-09
-1.85773e-09
-1.87656e-09
-1.90071e-09
-1.91975e-09
-1.94308e-09
-1.96346e-09
-1.98706e-09
-2.01185e-09
-2.03105e-09
-2.05698e-09
-2.07807e-09
-2.10001e-09
-2.11998e-09
-2.14301e-09
-2.16596e-09
-2.18815e-09
-2.20867e-09
-2.22811e-09
-2.25373e-09
-2.27364e-09
-2.29677e-09
-2.31927e-09
-2.34101e-09
-2.36455e-09
-2.38382e-09
-2.40779e-09
-2.43105e-09
-2.45377e-09
-2.4767e-09
-2.50344e-09
-2.53104e-09
-2.56251e-09
-2.59281e-09
-2.62768e-09
-2.66489e-09
-2.70719e-09
-2.75759e-09
-2.82191e-09
-2.90134e-09
-3.00337e-09
-3.12796e-09
-3.29714e-09
-3.48013e-09
-3.47494e-09
-3.09662e-09
-2.57455e-09
-1.1303e-09
-9.84802e-10
-9.96413e-10
-1.02454e-09
-1.06017e-09
-1.09778e-09
-1.14036e-09
-1.17956e-09
-1.21924e-09
-1.2567e-09
-1.2904e-09
-1.32412e-09
-1.3532e-09
-1.37925e-09
-1.40404e-09
-1.42625e-09
-1.45036e-09
-1.47332e-09
-1.49623e-09
-1.5202e-09
-1.54217e-09
-1.56389e-09
-1.58581e-09
-1.6087e-09
-1.6307e-09
-1.65244e-09
-1.67478e-09
-1.69609e-09
-1.71844e-09
-1.73997e-09
-1.76439e-09
-1.78548e-09
-1.80692e-09
-1.82892e-09
-1.85108e-09
-1.87421e-09
-1.89552e-09
-1.91877e-09
-1.93961e-09
-1.96315e-09
-1.98424e-09
-2.00597e-09
-2.02927e-09
-2.05048e-09
-2.07233e-09
-2.09413e-09
-2.1157e-09
-2.13814e-09
-2.15874e-09
-2.18155e-09
-2.2035e-09
-2.22629e-09
-2.24703e-09
-2.2693e-09
-2.29129e-09
-2.31299e-09
-2.33567e-09
-2.35772e-09
-2.38084e-09
-2.40195e-09
-2.42623e-09
-2.44824e-09
-2.4714e-09
-2.49861e-09
-2.52793e-09
-2.5574e-09
-2.59002e-09
-2.62565e-09
-2.66145e-09
-2.70599e-09
-2.75753e-09
-2.82247e-09
-2.90412e-09
-3.00881e-09
-3.13566e-09
-3.30547e-09
-3.50661e-09
-3.61657e-09
-2.51845e-09
-8.81947e-10
3.96474e-09
-7.41733e-10
-9.70613e-10
-9.92693e-10
-1.02128e-09
-1.05686e-09
-1.09541e-09
-1.13741e-09
-1.17819e-09
-1.21797e-09
-1.25702e-09
-1.29442e-09
-1.32606e-09
-1.35415e-09
-1.38008e-09
-1.40463e-09
-1.42915e-09
-1.45027e-09
-1.47338e-09
-1.49649e-09
-1.51964e-09
-1.54173e-09
-1.56385e-09
-1.58649e-09
-1.60743e-09
-1.63108e-09
-1.6533e-09
-1.67444e-09
-1.69607e-09
-1.71877e-09
-1.74038e-09
-1.76342e-09
-1.78493e-09
-1.80725e-09
-1.82812e-09
-1.85018e-09
-1.87249e-09
-1.89375e-09
-1.91702e-09
-1.93882e-09
-1.96175e-09
-1.98288e-09
-2.0043e-09
-2.02757e-09
-2.04973e-09
-2.07262e-09
-2.09369e-09
-2.11491e-09
-2.13773e-09
-2.15924e-09
-2.18181e-09
-2.20346e-09
-2.22585e-09
-2.24799e-09
-2.26904e-09
-2.2916e-09
-2.31344e-09
-2.33565e-09
-2.35804e-09
-2.38015e-09
-2.4024e-09
-2.42532e-09
-2.44896e-09
-2.47311e-09
-2.49952e-09
-2.52775e-09
-2.55764e-09
-2.59058e-09
-2.62492e-09
-2.66219e-09
-2.70532e-09
-2.75796e-09
-2.82477e-09
-2.90902e-09
-3.01444e-09
-3.14625e-09
-3.31497e-09
-3.53051e-09
-3.98561e-09
-9.14551e-09
-4.93033e-09
-3.75702e-10
-3.45213e-09
-1.18728e-09
-9.7575e-10
-9.91883e-10
-1.01866e-09
-1.05254e-09
-1.09149e-09
-1.13296e-09
-1.17464e-09
-1.21544e-09
-1.256e-09
-1.29147e-09
-1.32357e-09
-1.35269e-09
-1.37837e-09
-1.40276e-09
-1.42604e-09
-1.44883e-09
-1.4719e-09
-1.49429e-09
-1.51766e-09
-1.54002e-09
-1.56209e-09
-1.58415e-09
-1.60602e-09
-1.62891e-09
-1.65143e-09
-1.67287e-09
-1.69422e-09
-1.71663e-09
-1.73821e-09
-1.76149e-09
-1.78233e-09
-1.80524e-09
-1.82609e-09
-1.84804e-09
-1.87095e-09
-1.89261e-09
-1.91595e-09
-1.93857e-09
-1.961e-09
-1.98189e-09
-2.00298e-09
-2.0252e-09
-2.04731e-09
-2.06951e-09
-2.09076e-09
-2.11335e-09
-2.13595e-09
-2.15745e-09
-2.17916e-09
-2.20138e-09
-2.22397e-09
-2.24586e-09
-2.26723e-09
-2.28941e-09
-2.31132e-09
-2.33399e-09
-2.35557e-09
-2.37886e-09
-2.40111e-09
-2.42369e-09
-2.44703e-09
-2.47155e-09
-2.4979e-09
-2.5265e-09
-2.55674e-09
-2.58991e-09
-2.62426e-09
-2.66114e-09
-2.70532e-09
-2.75846e-09
-2.82623e-09
-2.91251e-09
-3.02031e-09
-3.15526e-09
-3.32684e-09
-3.54427e-09
-3.6889e-09
-1.81802e-09
-4.78229e-09
-5.20357e-09
5.9009e-10
1.74292e-09
-7.4737e-10
-9.65778e-10
-9.92042e-10
-1.01744e-09
-1.04972e-09
-1.08831e-09
-1.13057e-09
-1.17275e-09
-1.21495e-09
-1.2554e-09
-1.29125e-09
-1.32329e-09
-1.35205e-09
-1.37787e-09
-1.40185e-09
-1.42552e-09
-1.44876e-09
-1.47095e-09
-1.49383e-09
-1.51718e-09
-1.53899e-09
-1.5616e-09
-1.58352e-09
-1.6056e-09
-1.62805e-09
-1.65088e-09
-1.67199e-09
-1.69369e-09
-1.7157e-09
-1.73768e-09
-1.76008e-09
-1.78183e-09
-1.80367e-09
-1.82452e-09
-1.84716e-09
-1.87025e-09
-1.89238e-09
-1.91531e-09
-1.93842e-09
-1.96066e-09
-1.98141e-09
-2.00243e-09
-2.02478e-09
-2.046e-09
-2.06798e-09
-2.08938e-09
-2.11249e-09
-2.13469e-09
-2.15679e-09
-2.17872e-09
-2.20067e-09
-2.22316e-09
-2.24504e-09
-2.26654e-09
-2.28856e-09
-2.31055e-09
-2.33274e-09
-2.35538e-09
-2.37802e-09
-2.40058e-09
-2.42274e-09
-2.44652e-09
-2.47148e-09
-2.49769e-09
-2.52557e-09
-2.55655e-09
-2.58962e-09
-2.62376e-09
-2.66172e-09
-2.70539e-09
-2.75933e-09
-2.82822e-09
-2.91577e-09
-3.02537e-09
-3.1612e-09
-3.33446e-09
-3.5614e-09
-4.024e-09
-6.90581e-09
-4.96791e-09
-5.1846e-09
-3.4774e-10
-1.58456e-09
-9.96265e-10
-9.68724e-10
-9.90924e-10
-1.01615e-09
-1.04841e-09
-1.08714e-09
-1.12916e-09
-1.1716e-09
-1.21417e-09
-1.25467e-09
-1.29075e-09
-1.32282e-09
-1.35155e-09
-1.3775e-09
-1.40127e-09
-1.42516e-09
-1.44869e-09
-1.4701e-09
-1.49341e-09
-1.51631e-09
-1.53847e-09
-1.56115e-09
-1.58301e-09
-1.60533e-09
-1.62733e-09
-1.65041e-09
-1.67148e-09
-1.69312e-09
-1.71502e-09
-1.73733e-09
-1.75941e-09
-1.78094e-09
-1.80282e-09
-1.82414e-09
-1.84709e-09
-1.86963e-09
-1.89174e-09
-1.91439e-09
-1.93716e-09
-1.9586e-09
-1.97967e-09
-2.00146e-09
-2.02374e-09
-2.04518e-09
-2.0673e-09
-2.08908e-09
-2.11204e-09
-2.13412e-09
-2.15631e-09
-2.17837e-09
-2.20022e-09
-2.22274e-09
-2.24471e-09
-2.266e-09
-2.28803e-09
-2.30975e-09
-2.33208e-09
-2.35482e-09
-2.37742e-09
-2.40015e-09
-2.42227e-09
-2.44623e-09
-2.47116e-09
-2.49756e-09
-2.52511e-09
-2.55674e-09
-2.58948e-09
-2.62373e-09
-2.66191e-09
-2.70617e-09
-2.76016e-09
-2.82968e-09
-2.91818e-09
-3.02866e-09
-3.16526e-09
-3.33928e-09
-3.56479e-09
-3.81859e-09
-3.49692e-09
-4.84041e-09
-5.23838e-09
-1.09157e-09
-1.71017e-09
-9.92102e-10
-9.68776e-10
-9.91055e-10
-1.01636e-09
-1.04844e-09
-1.0872e-09
-1.12919e-09
-1.17165e-09
-1.21402e-09
-1.25482e-09
-1.29104e-09
-1.32262e-09
-1.35185e-09
-1.3778e-09
-1.4016e-09
-1.4254e-09
-1.4487e-09
-1.47015e-09
-1.4935e-09
-1.51622e-09
-1.53869e-09
-1.56125e-09
-1.58277e-09
-1.60555e-09
-1.62735e-09
-1.65026e-09
-1.67166e-09
-1.69316e-09
-1.71518e-09
-1.73753e-09
-1.75952e-09
-1.78119e-09
-1.80272e-09
-1.8246e-09
-1.8475e-09
-1.86981e-09
-1.89161e-09
-1.91466e-09
-1.93756e-09
-1.95934e-09
-1.98028e-09
-2.00157e-09
-2.0238e-09
-2.04535e-09
-2.0676e-09
-2.08942e-09
-2.11224e-09
-2.13427e-09
-2.15663e-09
-2.17846e-09
-2.20036e-09
-2.2228e-09
-2.24492e-09
-2.26623e-09
-2.2881e-09
-2.31012e-09
-2.33224e-09
-2.35507e-09
-2.37754e-09
-2.40044e-09
-2.42247e-09
-2.44637e-09
-2.47151e-09
-2.49799e-09
-2.52581e-09
-2.55719e-09
-2.58982e-09
-2.62422e-09
-2.66257e-09
-2.707e-09
-2.76115e-09
-2.83083e-09
-2.9196e-09
-3.03008e-09
-3.16676e-09
-3.34098e-09
-3.56658e-09
-3.816e-09
-3.61836e-09
-4.70531e-09
-5.21402e-09
-1.89142e-09
1.71423e-09
-7.7882e-10
-9.6664e-10
-9.91986e-10
-1.01766e-09
-1.04987e-09
-1.08848e-09
-1.13015e-09
-1.17273e-09
-1.21452e-09
-1.25555e-09
-1.29186e-09
-1.32317e-09
-1.35293e-09
-1.37891e-09
-1.40257e-09
-1.42573e-09
-1.44957e-09
-1.4713e-09
-1.49394e-09
-1.51673e-09
-1.53942e-09
-1.56173e-09
-1.58349e-09
-1.60646e-09
-1.62787e-09
-1.65079e-09
-1.672e-09
-1.69344e-09
-1.71582e-09
-1.73843e-09
-1.76031e-09
-1.78194e-09
-1.80347e-09
-1.82492e-09
-1.84761e-09
-1.8696e-09
-1.89156e-09
-1.91421e-09
-1.937e-09
-1.95892e-09
-1.98028e-09
-2.00133e-09
-2.02388e-09
-2.0457e-09
-2.06854e-09
-2.09044e-09
-2.11301e-09
-2.13491e-09
-2.15718e-09
-2.1793e-09
-2.20077e-09
-2.22304e-09
-2.24581e-09
-2.26695e-09
-2.28876e-09
-2.3109e-09
-2.33273e-09
-2.35574e-09
-2.378e-09
-2.40105e-09
-2.42319e-09
-2.44684e-09
-2.47179e-09
-2.49882e-09
-2.52707e-09
-2.55735e-09
-2.59059e-09
-2.62501e-09
-2.66363e-09
-2.70748e-09
-2.76231e-09
-2.83178e-09
-2.91997e-09
-3.02966e-09
-3.16603e-09
-3.33982e-09
-3.56742e-09
-4.06811e-09
-6.95436e-09
-4.77464e-09
-5.23826e-09
-1.81057e-09
-3.37218e-09
-1.1059e-09
-9.7363e-10
-9.92229e-10
-1.01895e-09
-1.05281e-09
-1.09175e-09
-1.13233e-09
-1.17473e-09
-1.21538e-09
-1.25632e-09
-1.29206e-09
-1.32337e-09
-1.35355e-09
-1.37911e-09
-1.40353e-09
-1.42645e-09
-1.44894e-09
-1.47194e-09
-1.49447e-09
-1.51672e-09
-1.54003e-09
-1.56151e-09
-1.58429e-09
-1.60621e-09
-1.6285e-09
-1.65041e-09
-1.67255e-09
-1.69436e-09
-1.71592e-09
-1.73902e-09
-1.7604e-09
-1.78309e-09
-1.80534e-09
-1.82642e-09
-1.849e-09
-1.87024e-09
-1.89253e-09
-1.91499e-09
-1.93718e-09
-1.95909e-09
-1.98116e-09
-2.00203e-09
-2.0254e-09
-2.04719e-09
-2.07017e-09
-2.09137e-09
-2.1132e-09
-2.13561e-09
-2.15726e-09
-2.18027e-09
-2.20178e-09
-2.22338e-09
-2.24613e-09
-2.26692e-09
-2.28917e-09
-2.31099e-09
-2.33238e-09
-2.35656e-09
-2.37773e-09
-2.4014e-09
-2.4236e-09
-2.44739e-09
-2.47248e-09
-2.4995e-09
-2.52762e-09
-2.55791e-09
-2.59162e-09
-2.62508e-09
-2.66494e-09
-2.70889e-09
-2.76331e-09
-2.83209e-09
-2.91926e-09
-3.02849e-09
-3.1637e-09
-3.33594e-09
-3.55158e-09
-3.61474e-09
-1.7574e-09
-4.70249e-09
-5.29534e-09
-9.28442e-10
4.00096e-09
-7.86936e-10
-9.71637e-10
-9.92871e-10
-1.02151e-09
-1.05725e-09
-1.0956e-09
-1.13671e-09
-1.17819e-09
-1.21886e-09
-1.25886e-09
-1.29538e-09
-1.3271e-09
-1.35535e-09
-1.38103e-09
-1.40511e-09
-1.4281e-09
-1.45393e-09
-1.47396e-09
-1.49588e-09
-1.51904e-09
-1.54119e-09
-1.56281e-09
-1.5861e-09
-1.6099e-09
-1.63174e-09
-1.65409e-09
-1.67457e-09
-1.69545e-09
-1.71789e-09
-1.74027e-09
-1.76445e-09
-1.78505e-09
-1.80849e-09
-1.82887e-09
-1.85184e-09
-1.87193e-09
-1.89384e-09
-1.91574e-09
-1.93781e-09
-1.95965e-09
-1.98247e-09
-2.00441e-09
-2.02765e-09
-2.04971e-09
-2.07206e-09
-2.09303e-09
-2.11507e-09
-2.13871e-09
-2.15972e-09
-2.18113e-09
-2.20272e-09
-2.22585e-09
-2.24821e-09
-2.26919e-09
-2.29157e-09
-2.31351e-09
-2.33412e-09
-2.3579e-09
-2.382e-09
-2.40274e-09
-2.42595e-09
-2.44977e-09
-2.47477e-09
-2.50067e-09
-2.53058e-09
-2.55961e-09
-2.59452e-09
-2.62708e-09
-2.66626e-09
-2.71076e-09
-2.76479e-09
-2.83273e-09
-2.91863e-09
-3.02471e-09
-3.15832e-09
-3.32788e-09
-3.5442e-09
-4.0436e-09
-9.12197e-09
-4.88762e-09
-5.20524e-09
-8.56753e-10
-2.63488e-09
-1.14278e-09
-9.86587e-10
-9.96475e-10
-1.02517e-09
-1.06072e-09
-1.0986e-09
-1.13779e-09
-1.17951e-09
-1.219e-09
-1.25607e-09
-1.2916e-09
-1.32294e-09
-1.35256e-09
-1.37782e-09
-1.40363e-09
-1.4274e-09
-1.44829e-09
-1.47117e-09
-1.49634e-09
-1.51904e-09
-1.54142e-09
-1.56339e-09
-1.58499e-09
-1.60684e-09
-1.62853e-09
-1.6502e-09
-1.67336e-09
-1.69536e-09
-1.71742e-09
-1.74049e-09
-1.76066e-09
-1.78343e-09
-1.80564e-09
-1.82792e-09
-1.84851e-09
-1.87281e-09
-1.89445e-09
-1.91656e-09
-1.93797e-09
-1.95971e-09
-1.98291e-09
-2.00529e-09
-2.02614e-09
-2.04903e-09
-2.07005e-09
-2.09231e-09
-2.11441e-09
-2.13635e-09
-2.15797e-09
-2.18017e-09
-2.2029e-09
-2.22315e-09
-2.24555e-09
-2.26781e-09
-2.28934e-09
-2.31144e-09
-2.33397e-09
-2.35743e-09
-2.37776e-09
-2.40317e-09
-2.42318e-09
-2.44908e-09
-2.47354e-09
-2.49901e-09
-2.52805e-09
-2.55872e-09
-2.59125e-09
-2.62721e-09
-2.66715e-09
-2.71128e-09
-2.7659e-09
-2.8326e-09
-2.91643e-09
-3.02115e-09
-3.15061e-09
-3.32181e-09
-3.52472e-09
-3.6437e-09
-2.58118e-09
-4.70332e-09
-2.02958e-09
-1.26177e-09
-1.00015e-09
-9.96633e-10
-1.0323e-09
-1.06896e-09
-1.10893e-09
-1.1479e-09
-1.18782e-09
-1.22665e-09
-1.26271e-09
-1.29794e-09
-1.32969e-09
-1.3596e-09
-1.38399e-09
-1.41016e-09
-1.43312e-09
-1.45614e-09
-1.47815e-09
-1.50317e-09
-1.52596e-09
-1.54676e-09
-1.56969e-09
-1.59092e-09
-1.61313e-09
-1.63501e-09
-1.65793e-09
-1.6798e-09
-1.70071e-09
-1.72306e-09
-1.74464e-09
-1.76876e-09
-1.78957e-09
-1.81163e-09
-1.83368e-09
-1.85629e-09
-1.87898e-09
-1.90138e-09
-1.92103e-09
-1.94265e-09
-1.96634e-09
-1.98938e-09
-2.01044e-09
-2.03175e-09
-2.05492e-09
-2.07871e-09
-2.09837e-09
-2.12059e-09
-2.14256e-09
-2.16341e-09
-2.18749e-09
-2.20808e-09
-2.22901e-09
-2.2527e-09
-2.27517e-09
-2.29586e-09
-2.31784e-09
-2.34112e-09
-2.36278e-09
-2.38381e-09
-2.40782e-09
-2.43058e-09
-2.45489e-09
-2.47929e-09
-2.50682e-09
-2.53295e-09
-2.56329e-09
-2.59803e-09
-2.63417e-09
-2.67119e-09
-2.7157e-09
-2.76835e-09
-2.83318e-09
-2.91449e-09
-3.01967e-09
-3.14603e-09
-3.31544e-09
-3.50123e-09
-3.50465e-09
-3.13724e-09
-2.29952e-11
-1.55481e-09
-9.89054e-10
-9.84449e-10
-1.02322e-09
-1.06262e-09
-1.10039e-09
-1.13768e-09
-1.18206e-09
-1.22128e-09
-1.25798e-09
-1.29174e-09
-1.3205e-09
-1.34987e-09
-1.37725e-09
-1.3997e-09
-1.42646e-09
-1.44877e-09
-1.47262e-09
-1.49757e-09
-1.51808e-09
-1.53782e-09
-1.55952e-09
-1.58558e-09
-1.60959e-09
-1.62851e-09
-1.64902e-09
-1.67348e-09
-1.69054e-09
-1.71701e-09
-1.74178e-09
-1.76036e-09
-1.78388e-09
-1.8076e-09
-1.82713e-09
-1.84885e-09
-1.87527e-09
-1.89652e-09
-1.91734e-09
-1.9381e-09
-1.95972e-09
-1.98033e-09
-2.00503e-09
-2.02704e-09
-2.04857e-09
-2.06505e-09
-2.09318e-09
-2.11286e-09
-2.13863e-09
-2.15824e-09
-2.17814e-09
-2.19905e-09
-2.22464e-09
-2.24835e-09
-2.26614e-09
-2.29003e-09
-2.312e-09
-2.33515e-09
-2.35464e-09
-2.37771e-09
-2.40211e-09
-2.42505e-09
-2.44921e-09
-2.47585e-09
-2.49452e-09
-2.52733e-09
-2.55472e-09
-2.59258e-09
-2.62509e-09
-2.66456e-09
-2.70885e-09
-2.76571e-09
-2.82853e-09
-2.91146e-09
-3.01426e-09
-3.14067e-09
-3.30688e-09
-3.48548e-09
-3.16197e-09
-5.08807e-09
-6.56073e-11
-1.05056e-09
-9.98609e-10
-1.01756e-09
-1.03946e-09
-1.07364e-09
-1.10795e-09
-1.1474e-09
-1.18453e-09
-1.22039e-09
-1.25165e-09
-1.28774e-09
-1.31947e-09
-1.34928e-09
-1.37653e-09
-1.40131e-09
-1.42419e-09
-1.44969e-09
-1.47675e-09
-1.49498e-09
-1.51633e-09
-1.54064e-09
-1.56273e-09
-1.58143e-09
-1.60892e-09
-1.62967e-09
-1.65234e-09
-1.67014e-09
-1.69451e-09
-1.71997e-09
-1.73772e-09
-1.76162e-09
-1.78087e-09
-1.80421e-09
-1.82906e-09
-1.84951e-09
-1.87035e-09
-1.89048e-09
-1.91559e-09
-1.93798e-09
-1.95627e-09
-1.98055e-09
-2.00213e-09
-2.02527e-09
-2.04972e-09
-2.06825e-09
-2.09258e-09
-2.11081e-09
-2.13614e-09
-2.15841e-09
-2.17742e-09
-2.20296e-09
-2.22395e-09
-2.24556e-09
-2.26515e-09
-2.29263e-09
-2.31147e-09
-2.32827e-09
-2.3533e-09
-2.37902e-09
-2.39951e-09
-2.42197e-09
-2.44394e-09
-2.46943e-09
-2.49075e-09
-2.51879e-09
-2.54529e-09
-2.57205e-09
-2.60912e-09
-2.64045e-09
-2.67749e-09
-2.72581e-09
-2.77805e-09
-2.8448e-09
-2.92329e-09
-3.02237e-09
-3.15761e-09
-3.32116e-09
-3.47598e-09
-4.77774e-09
-1.89055e-09
-2.44146e-09
-9.81913e-10
-9.93754e-10
-1.02212e-09
-1.05165e-09
-1.08298e-09
-1.11651e-09
-1.15185e-09
-1.18628e-09
-1.22188e-09
-1.25742e-09
-1.29089e-09
-1.32283e-09
-1.35459e-09
-1.38309e-09
-1.40688e-09
-1.43227e-09
-1.45394e-09
-1.47759e-09
-1.49998e-09
-1.52234e-09
-1.54509e-09
-1.56711e-09
-1.5906e-09
-1.61204e-09
-1.63362e-09
-1.65603e-09
-1.67917e-09
-1.69941e-09
-1.72248e-09
-1.74371e-09
-1.76532e-09
-1.78624e-09
-1.81097e-09
-1.83232e-09
-1.85222e-09
-1.87553e-09
-1.89745e-09
-1.91946e-09
-1.94062e-09
-1.96556e-09
-1.9859e-09
-2.00585e-09
-2.03188e-09
-2.0517e-09
-2.07307e-09
-2.09691e-09
-2.11862e-09
-2.14373e-09
-2.16113e-09
-2.1841e-09
-2.20738e-09
-2.2274e-09
-2.25082e-09
-2.27513e-09
-2.29289e-09
-2.31659e-09
-2.33843e-09
-2.35823e-09
-2.38201e-09
-2.40793e-09
-2.42845e-09
-2.44821e-09
-2.47341e-09
-2.49974e-09
-2.52244e-09
-2.5508e-09
-2.58263e-09
-2.60982e-09
-2.64304e-09
-2.68257e-09
-2.72679e-09
-2.7812e-09
-2.84885e-09
-2.9294e-09
-3.03638e-09
-3.17649e-09
-3.36055e-09
-3.594e-09
-2.46038e-09
-4.04097e-09
-8.84586e-10
6.01437e-10
-8.94043e-10
-9.84173e-10
-1.01485e-09
-1.04491e-09
-1.07637e-09
-1.10793e-09
-1.14271e-09
-1.17836e-09
-1.21474e-09
-1.25242e-09
-1.28904e-09
-1.31992e-09
-1.35072e-09
-1.37798e-09
-1.4037e-09
-1.42754e-09
-1.45179e-09
-1.4744e-09
-1.49784e-09
-1.51815e-09
-1.54101e-09
-1.56538e-09
-1.58686e-09
-1.60853e-09
-1.62894e-09
-1.65151e-09
-1.67544e-09
-1.69796e-09
-1.71947e-09
-1.73641e-09
-1.7609e-09
-1.78546e-09
-1.8074e-09
-1.82963e-09
-1.84857e-09
-1.87197e-09
-1.89334e-09
-1.91511e-09
-1.93791e-09
-1.96113e-09
-1.98077e-09
-2.00387e-09
-2.02668e-09
-2.04957e-09
-2.0689e-09
-2.09542e-09
-2.11609e-09
-2.13804e-09
-2.16065e-09
-2.17848e-09
-2.20437e-09
-2.22704e-09
-2.24832e-09
-2.26834e-09
-2.29115e-09
-2.31135e-09
-2.33554e-09
-2.35602e-09
-2.37973e-09
-2.40089e-09
-2.42334e-09
-2.44756e-09
-2.46993e-09
-2.49481e-09
-2.5227e-09
-2.54673e-09
-2.57955e-09
-2.60927e-09
-2.64331e-09
-2.68177e-09
-2.73091e-09
-2.78776e-09
-2.86088e-09
-2.94793e-09
-3.06103e-09
-3.20895e-09
-3.40326e-09
-3.72315e-09
-5.54418e-09
-4.36851e-09
-4.58554e-09
-8.75864e-10
-6.04282e-10
-8.86938e-10
-9.78068e-10
-1.00621e-09
-1.03736e-09
-1.07006e-09
-1.10094e-09
-1.13981e-09
-1.17699e-09
-1.21423e-09
-1.25321e-09
-1.28363e-09
-1.32081e-09
-1.35197e-09
-1.37776e-09
-1.40501e-09
-1.42596e-09
-1.4528e-09
-1.47585e-09
-1.49744e-09
-1.5182e-09
-1.53936e-09
-1.56647e-09
-1.58864e-09
-1.60935e-09
-1.62962e-09
-1.64994e-09
-1.67589e-09
-1.69832e-09
-1.71788e-09
-1.7372e-09
-1.76085e-09
-1.7865e-09
-1.80827e-09
-1.82988e-09
-1.84779e-09
-1.87319e-09
-1.89384e-09
-1.91273e-09
-1.93267e-09
-1.96133e-09
-1.97991e-09
-2.00341e-09
-2.02863e-09
-2.04626e-09
-2.06941e-09
-2.09441e-09
-2.11678e-09
-2.13918e-09
-2.15599e-09
-2.18068e-09
-2.20392e-09
-2.22742e-09
-2.24418e-09
-2.26975e-09
-2.29262e-09
-2.31127e-09
-2.33683e-09
-2.35355e-09
-2.37853e-09
-2.40176e-09
-2.42253e-09
-2.4486e-09
-2.46888e-09
-2.49669e-09
-2.52066e-09
-2.54955e-09
-2.58015e-09
-2.6103e-09
-2.64619e-09
-2.68793e-09
-2.73791e-09
-2.79797e-09
-2.87398e-09
-2.96525e-09
-3.08469e-09
-3.23957e-09
-3.44017e-09
-3.77024e-09
-4.3891e-09
-4.3743e-09
-4.84995e-09
-8.88611e-10
-4.26812e-10
-8.43847e-10
-9.71608e-10
-9.97622e-10
-1.03361e-09
-1.07201e-09
-1.11423e-09
-1.151e-09
-1.18984e-09
-1.22749e-09
-1.26059e-09
-1.29902e-09
-1.32674e-09
-1.35599e-09
-1.38599e-09
-1.40844e-09
-1.43653e-09
-1.456e-09
-1.47852e-09
-1.50119e-09
-1.52465e-09
-1.55185e-09
-1.56997e-09
-1.5921e-09
-1.61271e-09
-1.63877e-09
-1.66241e-09
-1.67809e-09
-1.70169e-09
-1.72414e-09
-1.74946e-09
-1.76995e-09
-1.7902e-09
-1.81007e-09
-1.83414e-09
-1.86154e-09
-1.87607e-09
-1.90011e-09
-1.92356e-09
-1.9464e-09
-1.96688e-09
-1.99004e-09
-2.00768e-09
-2.03236e-09
-2.06003e-09
-2.07998e-09
-2.09766e-09
-2.1194e-09
-2.14307e-09
-2.17014e-09
-2.18905e-09
-2.2083e-09
-2.23001e-09
-2.2573e-09
-2.27285e-09
-2.29566e-09
-2.32159e-09
-2.34066e-09
-2.36564e-09
-2.38297e-09
-2.40726e-09
-2.43148e-09
-2.45175e-09
-2.48194e-09
-2.50182e-09
-2.52808e-09
-2.56207e-09
-2.58942e-09
-2.62717e-09
-2.6648e-09
-2.70689e-09
-2.75998e-09
-2.82351e-09
-2.90141e-09
-2.99892e-09
-3.12179e-09
-3.27871e-09
-3.47665e-09
-3.85173e-09
-4.61052e-09
-4.49198e-09
-5.07315e-09
-9.86911e-10
-2.07684e-09
-1.01483e-09
-9.82479e-10
-9.99192e-10
-1.04373e-09
-1.08432e-09
-1.12756e-09
-1.1654e-09
-1.20293e-09
-1.2382e-09
-1.27357e-09
-1.30518e-09
-1.33533e-09
-1.36405e-09
-1.39134e-09
-1.41507e-09
-1.43997e-09
-1.46234e-09
-1.49003e-09
-1.50745e-09
-1.53588e-09
-1.55431e-09
-1.57429e-09
-1.59776e-09
-1.6217e-09
-1.6424e-09
-1.66668e-09
-1.6882e-09
-1.70728e-09
-1.7288e-09
-1.75306e-09
-1.77711e-09
-1.79628e-09
-1.82124e-09
-1.83954e-09
-1.86548e-09
-1.88741e-09
-1.90656e-09
-1.93456e-09
-1.95495e-09
-1.97783e-09
-2.00035e-09
-2.01971e-09
-2.04004e-09
-2.06432e-09
-2.08322e-09
-2.10954e-09
-2.12911e-09
-2.14783e-09
-2.174e-09
-2.1933e-09
-2.21255e-09
-2.24092e-09
-2.25975e-09
-2.28238e-09
-2.30109e-09
-2.32483e-09
-2.34545e-09
-2.36908e-09
-2.39192e-09
-2.41474e-09
-2.44112e-09
-2.45879e-09
-2.48569e-09
-2.50721e-09
-2.53858e-09
-2.5682e-09
-2.60515e-09
-2.6412e-09
-2.67753e-09
-2.7225e-09
-2.77558e-09
-2.83841e-09
-2.9169e-09
-3.0148e-09
-3.14153e-09
-3.3037e-09
-3.4995e-09
-3.72681e-09
-3.01824e-09
-4.41671e-09
-5.15076e-09
-9.95514e-10
-1.96588e-09
-1.02948e-09
-9.80261e-10
-1.00255e-09
-1.04467e-09
-1.08468e-09
-1.1258e-09
-1.165e-09
-1.20143e-09
-1.23669e-09
-1.26983e-09
-1.30231e-09
-1.3329e-09
-1.36127e-09
-1.38802e-09
-1.41135e-09
-1.4348e-09
-1.45836e-09
-1.48385e-09
-1.50407e-09
-1.52891e-09
-1.54814e-09
-1.57153e-09
-1.59393e-09
-1.61609e-09
-1.63835e-09
-1.65996e-09
-1.68248e-09
-1.70399e-09
-1.72518e-09
-1.74956e-09
-1.77366e-09
-1.79453e-09
-1.81595e-09
-1.83818e-09
-1.86053e-09
-1.88501e-09
-1.90481e-09
-1.93113e-09
-1.95257e-09
-1.97527e-09
-1.99724e-09
-2.01779e-09
-2.03658e-09
-2.05865e-09
-2.07883e-09
-2.1031e-09
-2.12433e-09
-2.14469e-09
-2.16673e-09
-2.1889e-09
-2.2087e-09
-2.2352e-09
-2.25476e-09
-2.27665e-09
-2.2979e-09
-2.31977e-09
-2.34133e-09
-2.36656e-09
-2.3889e-09
-2.41057e-09
-2.43451e-09
-2.45459e-09
-2.47945e-09
-2.50507e-09
-2.53718e-09
-2.56789e-09
-2.60109e-09
-2.63862e-09
-2.67733e-09
-2.72329e-09
-2.77723e-09
-2.84151e-09
-2.92098e-09
-3.02104e-09
-3.15115e-09
-3.31847e-09
-3.51899e-09
-3.73221e-09
-3.1458e-09
-4.38491e-09
-5.20161e-09
-9.6921e-10
-1.18431e-09
-9.38363e-10
-9.70872e-10
-1.00525e-09
-1.0444e-09
-1.08403e-09
-1.1245e-09
-1.16407e-09
-1.20061e-09
-1.23565e-09
-1.26994e-09
-1.3047e-09
-1.33564e-09
-1.36478e-09
-1.39206e-09
-1.41521e-09
-1.43999e-09
-1.46186e-09
-1.48343e-09
-1.50666e-09
-1.52895e-09
-1.5506e-09
-1.57307e-09
-1.59685e-09
-1.61756e-09
-1.64245e-09
-1.66308e-09
-1.68448e-09
-1.70602e-09
-1.72912e-09
-1.75045e-09
-1.77305e-09
-1.79496e-09
-1.81712e-09
-1.83824e-09
-1.86006e-09
-1.88197e-09
-1.9045e-09
-1.92808e-09
-1.95058e-09
-1.97292e-09
-1.99496e-09
-2.01537e-09
-2.03557e-09
-2.0588e-09
-2.08337e-09
-2.10284e-09
-2.1257e-09
-2.14708e-09
-2.16677e-09
-2.19311e-09
-2.21278e-09
-2.23606e-09
-2.25839e-09
-2.27844e-09
-2.30107e-09
-2.32406e-09
-2.34456e-09
-2.36737e-09
-2.38995e-09
-2.41346e-09
-2.43446e-09
-2.45864e-09
-2.4839e-09
-2.50988e-09
-2.53866e-09
-2.5726e-09
-2.60455e-09
-2.64031e-09
-2.67964e-09
-2.72481e-09
-2.77836e-09
-2.84332e-09
-2.92423e-09
-3.02476e-09
-3.15576e-09
-3.32605e-09
-3.54111e-09
-3.84034e-09
-3.96885e-09
-4.71561e-09
-5.22338e-09
-9.69546e-10
-2.39502e-09
-1.04802e-09
-9.75858e-10
-1.00238e-09
-1.04199e-09
-1.08211e-09
-1.12233e-09
-1.16132e-09
-1.19825e-09
-1.23366e-09
-1.2682e-09
-1.30305e-09
-1.33538e-09
-1.36439e-09
-1.38947e-09
-1.4139e-09
-1.43721e-09
-1.46e-09
-1.48296e-09
-1.50403e-09
-1.52778e-09
-1.54971e-09
-1.57201e-09
-1.5952e-09
-1.61595e-09
-1.63945e-09
-1.65993e-09
-1.68344e-09
-1.70405e-09
-1.72658e-09
-1.74811e-09
-1.77142e-09
-1.79265e-09
-1.81448e-09
-1.83563e-09
-1.8581e-09
-1.8799e-09
-1.90353e-09
-1.92619e-09
-1.9488e-09
-1.97085e-09
-1.9931e-09
-2.01312e-09
-2.03321e-09
-2.05628e-09
-2.08006e-09
-2.10086e-09
-2.12398e-09
-2.14577e-09
-2.1663e-09
-2.19007e-09
-2.21036e-09
-2.23468e-09
-2.25531e-09
-2.27779e-09
-2.29904e-09
-2.32104e-09
-2.34288e-09
-2.36563e-09
-2.38861e-09
-2.41134e-09
-2.4335e-09
-2.4563e-09
-2.48102e-09
-2.50822e-09
-2.53886e-09
-2.57141e-09
-2.60459e-09
-2.63995e-09
-2.67939e-09
-2.72522e-09
-2.77941e-09
-2.84494e-09
-2.92615e-09
-3.02803e-09
-3.15992e-09
-3.33054e-09
-3.54981e-09
-3.77253e-09
-2.80848e-09
-4.67812e-09
-5.23436e-09
-8.67728e-10
-1.57049e-10
-8.86364e-10
-9.68116e-10
-1.00287e-09
-1.0406e-09
-1.08062e-09
-1.12054e-09
-1.15968e-09
-1.1969e-09
-1.23231e-09
-1.26783e-09
-1.30293e-09
-1.33548e-09
-1.3642e-09
-1.38979e-09
-1.41477e-09
-1.43657e-09
-1.46047e-09
-1.48326e-09
-1.50378e-09
-1.52779e-09
-1.54918e-09
-1.57206e-09
-1.59423e-09
-1.61622e-09
-1.63878e-09
-1.6606e-09
-1.68228e-09
-1.70435e-09
-1.72607e-09
-1.7479e-09
-1.77024e-09
-1.79171e-09
-1.8122e-09
-1.83479e-09
-1.85746e-09
-1.87912e-09
-1.90288e-09
-1.92558e-09
-1.94792e-09
-1.96995e-09
-1.99234e-09
-2.01191e-09
-2.0323e-09
-2.05497e-09
-2.07835e-09
-2.10005e-09
-2.12281e-09
-2.14453e-09
-2.16625e-09
-2.18941e-09
-2.21097e-09
-2.23355e-09
-2.25476e-09
-2.27676e-09
-2.29888e-09
-2.32112e-09
-2.34234e-09
-2.36577e-09
-2.38799e-09
-2.41089e-09
-2.43337e-09
-2.45666e-09
-2.48198e-09
-2.50831e-09
-2.53922e-09
-2.57085e-09
-2.60478e-09
-2.64053e-09
-2.67972e-09
-2.72566e-09
-2.78028e-09
-2.84643e-09
-2.9279e-09
-3.03082e-09
-3.16354e-09
-3.33526e-09
-3.561e-09
-3.92957e-09
-5.11532e-09
-4.83803e-09
-5.25568e-09
-9.14312e-10
-1.36592e-09
-9.62391e-10
-9.70248e-10
-1.00263e-09
-1.03998e-09
-1.07992e-09
-1.11993e-09
-1.15889e-09
-1.19622e-09
-1.23162e-09
-1.26731e-09
-1.30277e-09
-1.3352e-09
-1.36363e-09
-1.38969e-09
-1.41486e-09
-1.43642e-09
-1.45952e-09
-1.48298e-09
-1.50372e-09
-1.52737e-09
-1.54875e-09
-1.57187e-09
-1.59376e-09
-1.61615e-09
-1.63776e-09
-1.65987e-09
-1.68193e-09
-1.70396e-09
-1.72545e-09
-1.74705e-09
-1.76943e-09
-1.79088e-09
-1.81154e-09
-1.83446e-09
-1.85741e-09
-1.87889e-09
-1.9026e-09
-1.92537e-09
-1.94773e-09
-1.9698e-09
-1.992e-09
-2.01161e-09
-2.03212e-09
-2.05471e-09
-2.07731e-09
-2.09895e-09
-2.12216e-09
-2.14427e-09
-2.16579e-09
-2.18847e-09
-2.2107e-09
-2.23315e-09
-2.25463e-09
-2.27627e-09
-2.29872e-09
-2.32077e-09
-2.34261e-09
-2.36514e-09
-2.38798e-09
-2.41044e-09
-2.433e-09
-2.45715e-09
-2.48216e-09
-2.50858e-09
-2.539e-09
-2.57082e-09
-2.60513e-09
-2.64098e-09
-2.68003e-09
-2.72625e-09
-2.78098e-09
-2.84744e-09
-2.92951e-09
-3.03317e-09
-3.16626e-09
-3.33884e-09
-3.56427e-09
-3.84189e-09
-3.70118e-09
-4.77271e-09
-5.26977e-09
-9.15852e-10
-1.49896e-09
-9.69581e-10
-9.70603e-10
-1.0027e-09
-1.04006e-09
-1.07986e-09
-1.11988e-09
-1.1589e-09
-1.1962e-09
-1.23163e-09
-1.26737e-09
-1.30275e-09
-1.33529e-09
-1.36372e-09
-1.38961e-09
-1.41425e-09
-1.43637e-09
-1.45935e-09
-1.48295e-09
-1.50391e-09
-1.52734e-09
-1.54877e-09
-1.57179e-09
-1.59389e-09
-1.61617e-09
-1.63753e-09
-1.6599e-09
-1.68192e-09
-1.70415e-09
-1.72568e-09
-1.74724e-09
-1.76919e-09
-1.79113e-09
-1.8116e-09
-1.83386e-09
-1.85758e-09
-1.87862e-09
-1.90258e-09
-1.92515e-09
-1.9478e-09
-1.96919e-09
-1.99176e-09
-2.01173e-09
-2.0321e-09
-2.05485e-09
-2.07698e-09
-2.09874e-09
-2.12222e-09
-2.14423e-09
-2.16632e-09
-2.18821e-09
-2.21092e-09
-2.23304e-09
-2.2547e-09
-2.2761e-09
-2.2986e-09
-2.32022e-09
-2.34278e-09
-2.36531e-09
-2.38796e-09
-2.41061e-09
-2.43318e-09
-2.45737e-09
-2.48246e-09
-2.50903e-09
-2.53884e-09
-2.57099e-09
-2.6057e-09
-2.64155e-09
-2.68084e-09
-2.72698e-09
-2.78196e-09
-2.84857e-09
-2.93083e-09
-3.03471e-09
-3.16785e-09
-3.34063e-09
-3.56642e-09
-3.85099e-09
-3.82901e-09
-4.7813e-09
-5.27509e-09
-8.41472e-10
-8.57114e-11
-8.75989e-10
-9.69269e-10
-1.00303e-09
-1.04081e-09
-1.08073e-09
-1.12055e-09
-1.15947e-09
-1.19676e-09
-1.23256e-09
-1.26788e-09
-1.30308e-09
-1.33555e-09
-1.36405e-09
-1.39003e-09
-1.41349e-09
-1.43629e-09
-1.45973e-09
-1.48285e-09
-1.50441e-09
-1.52741e-09
-1.54931e-09
-1.57157e-09
-1.59378e-09
-1.6164e-09
-1.63823e-09
-1.6601e-09
-1.68202e-09
-1.70423e-09
-1.72613e-09
-1.7475e-09
-1.7701e-09
-1.79159e-09
-1.81202e-09
-1.83364e-09
-1.85765e-09
-1.87866e-09
-1.90197e-09
-1.92459e-09
-1.94754e-09
-1.96927e-09
-1.9914e-09
-2.01188e-09
-2.03231e-09
-2.05524e-09
-2.07736e-09
-2.0994e-09
-2.12318e-09
-2.14487e-09
-2.1671e-09
-2.18878e-09
-2.2112e-09
-2.23365e-09
-2.25556e-09
-2.27686e-09
-2.29868e-09
-2.32036e-09
-2.34343e-09
-2.36611e-09
-2.38823e-09
-2.41142e-09
-2.4336e-09
-2.45758e-09
-2.48262e-09
-2.50946e-09
-2.53973e-09
-2.57088e-09
-2.60638e-09
-2.64184e-09
-2.68179e-09
-2.72811e-09
-2.78323e-09
-2.8498e-09
-2.93176e-09
-3.03527e-09
-3.16807e-09
-3.34062e-09
-3.56724e-09
-3.93014e-09
-5.07466e-09
-4.82435e-09
-5.26679e-09
-9.80579e-10
-2.36018e-09
-1.0259e-09
-9.73923e-10
-1.00354e-09
-1.04187e-09
-1.08227e-09
-1.12233e-09
-1.16117e-09
-1.19825e-09
-1.23351e-09
-1.26862e-09
-1.30318e-09
-1.33555e-09
-1.36382e-09
-1.38991e-09
-1.41341e-09
-1.43605e-09
-1.45944e-09
-1.48305e-09
-1.50467e-09
-1.52709e-09
-1.54967e-09
-1.57147e-09
-1.59418e-09
-1.6163e-09
-1.63818e-09
-1.66004e-09
-1.68211e-09
-1.70392e-09
-1.7257e-09
-1.74768e-09
-1.77043e-09
-1.79229e-09
-1.81376e-09
-1.83451e-09
-1.85858e-09
-1.87898e-09
-1.90166e-09
-1.92468e-09
-1.94785e-09
-1.96965e-09