/*--------------------------------*- C++ -*----------------------------------*\
| =========                 |                                                 |
| \\      /  F ield         | OpenFOAM: The Open Source CFD Toolbox           |
|  \\    /   O peration     | Version:  v1906                                 |
|   \\  /    A nd           | Web:      www.OpenFOAM.com                      |
|    \\/     M anipulation  |                                                 |
\*---------------------------------------------------------------------------*/
FoamFile
{
    version     2.0;
    format      ascii;
    class       volScalarField;
    location    "0.47";
    object      p;
}
// * * * * * * * * * * * * * * * * * * * * * * * * * * * * * * * * * * * * * //

dimensions      [0 2 -2 0 0 0 0];


internalField   nonuniform List<scalar> 
243374
(
-2.20472e-15
-8.06814e-10
-5.94106e-10
-6.13384e-10
-6.50853e-10
-6.86495e-10
-7.21009e-10
-7.55365e-10
-7.88065e-10
-8.18971e-10
-8.46936e-10
-8.75483e-10
-9.01576e-10
-9.26824e-10
-9.5132e-10
-9.74519e-10
-9.97835e-10
-1.02054e-09
-1.04221e-09
-1.06556e-09
-1.08806e-09
-1.11029e-09
-1.1326e-09
-1.15452e-09
-1.17592e-09
-1.19911e-09
-1.22023e-09
-1.24253e-09
-1.26492e-09
-1.28688e-09
-1.30905e-09
-1.33094e-09
-1.35314e-09
-1.37444e-09
-1.39734e-09
-1.41958e-09
-1.44068e-09
-1.46353e-09
-1.48482e-09
-1.50729e-09
-1.52877e-09
-1.55152e-09
-1.57247e-09
-1.5953e-09
-1.61703e-09
-1.63949e-09
-1.66065e-09
-1.68233e-09
-1.70495e-09
-1.727e-09
-1.74913e-09
-1.77053e-09
-1.7921e-09
-1.81482e-09
-1.83621e-09
-1.85957e-09
-1.88298e-09
-1.90652e-09
-1.93134e-09
-1.95762e-09
-1.9865e-09
-2.01936e-09
-2.05815e-09
-2.10446e-09
-2.16295e-09
-2.23805e-09
-2.33844e-09
-2.47282e-09
-2.65797e-09
-2.91646e-09
-3.27348e-09
-3.76988e-09
-4.46835e-09
-5.44366e-09
-6.7926e-09
-8.6546e-09
-1.12232e-08
-1.46967e-08
-1.90836e-08
-2.64024e-08
-7.55975e-10
-6.91656e-10
-6.03368e-10
-6.21376e-10
-6.54961e-10
-6.89738e-10
-7.24139e-10
-7.57785e-10
-7.89693e-10
-8.2057e-10
-8.50184e-10
-8.77084e-10
-9.0304e-10
-9.27883e-10
-9.52241e-10
-9.75893e-10
-9.99142e-10
-1.02201e-09
-1.04477e-09
-1.06696e-09
-1.0896e-09
-1.11176e-09
-1.13377e-09
-1.15581e-09
-1.17834e-09
-1.20023e-09
-1.22223e-09
-1.24424e-09
-1.2662e-09
-1.28821e-09
-1.31011e-09
-1.33283e-09
-1.35457e-09
-1.37686e-09
-1.39854e-09
-1.42129e-09
-1.44309e-09
-1.46502e-09
-1.48682e-09
-1.50914e-09
-1.53075e-09
-1.55297e-09
-1.57532e-09
-1.59668e-09
-1.61906e-09
-1.64055e-09
-1.66254e-09
-1.68468e-09
-1.70623e-09
-1.72848e-09
-1.7501e-09
-1.77179e-09
-1.79377e-09
-1.81592e-09
-1.83843e-09
-1.86067e-09
-1.88359e-09
-1.90744e-09
-1.93236e-09
-1.95897e-09
-1.98805e-09
-2.02119e-09
-2.05919e-09
-2.10604e-09
-2.1646e-09
-2.2409e-09
-2.34199e-09
-2.47916e-09
-2.66709e-09
-2.92781e-09
-3.29216e-09
-3.7972e-09
-4.50799e-09
-5.49248e-09
-6.86379e-09
-8.7567e-09
-1.13558e-08
-1.48743e-08
-1.94839e-08
-2.58774e-08
-1.14422e-09
-6.74898e-10
-5.99964e-10
-6.21189e-10
-6.53078e-10
-6.86592e-10
-7.2067e-10
-7.55335e-10
-7.8761e-10
-8.18917e-10
-8.47936e-10
-8.75291e-10
-9.01322e-10
-9.26409e-10
-9.50546e-10
-9.7412e-10
-9.97217e-10
-1.02061e-09
-1.04276e-09
-1.0652e-09
-1.08819e-09
-1.10982e-09
-1.13221e-09
-1.15421e-09
-1.17636e-09
-1.19849e-09
-1.22037e-09
-1.24258e-09
-1.2647e-09
-1.28663e-09
-1.30902e-09
-1.33105e-09
-1.35315e-09
-1.37467e-09
-1.39724e-09
-1.41933e-09
-1.44156e-09
-1.46353e-09
-1.48579e-09
-1.50726e-09
-1.52988e-09
-1.5516e-09
-1.57356e-09
-1.59559e-09
-1.61714e-09
-1.63899e-09
-1.6611e-09
-1.68273e-09
-1.70475e-09
-1.72584e-09
-1.74822e-09
-1.77022e-09
-1.7921e-09
-1.81394e-09
-1.83622e-09
-1.8587e-09
-1.88158e-09
-1.90548e-09
-1.93046e-09
-1.95654e-09
-1.98578e-09
-2.01853e-09
-2.05653e-09
-2.10255e-09
-2.162e-09
-2.23848e-09
-2.33995e-09
-2.47746e-09
-2.66673e-09
-2.93002e-09
-3.29732e-09
-3.80937e-09
-4.5274e-09
-5.52689e-09
-6.91692e-09
-8.83501e-09
-1.1463e-08
-1.50212e-08
-1.9692e-08
-2.57241e-08
-4.64271e-10
6.52793e-10
-4.75553e-10
-5.92422e-10
-6.19742e-10
-6.51431e-10
-6.85922e-10
-7.21172e-10
-7.55375e-10
-7.88512e-10
-8.19561e-10
-8.49242e-10
-8.76755e-10
-9.0269e-10
-9.27476e-10
-9.51707e-10
-9.75371e-10
-9.98825e-10
-1.02081e-09
-1.04375e-09
-1.06637e-09
-1.08826e-09
-1.11084e-09
-1.13305e-09
-1.15536e-09
-1.17726e-09
-1.19962e-09
-1.22175e-09
-1.24351e-09
-1.26556e-09
-1.28765e-09
-1.30937e-09
-1.33149e-09
-1.35329e-09
-1.376e-09
-1.39769e-09
-1.41948e-09
-1.44133e-09
-1.46316e-09
-1.48507e-09
-1.50698e-09
-1.52921e-09
-1.55123e-09
-1.57343e-09
-1.59556e-09
-1.61807e-09
-1.64003e-09
-1.66116e-09
-1.68327e-09
-1.70524e-09
-1.7273e-09
-1.74921e-09
-1.77084e-09
-1.79265e-09
-1.81499e-09
-1.83677e-09
-1.85934e-09
-1.88221e-09
-1.90557e-09
-1.92999e-09
-1.95613e-09
-1.98504e-09
-2.01785e-09
-2.05643e-09
-2.1033e-09
-2.16145e-09
-2.23744e-09
-2.33914e-09
-2.4777e-09
-2.66787e-09
-2.93178e-09
-3.30137e-09
-3.81788e-09
-4.54158e-09
-5.55108e-09
-6.9543e-09
-8.89177e-09
-1.15444e-08
-1.51372e-08
-2.00354e-08
-2.75257e-08
-3.25557e-08
-2.28446e-10
-1.21663e-09
-6.8823e-10
-5.96252e-10
-6.18098e-10
-6.49308e-10
-6.84231e-10
-7.19827e-10
-7.54339e-10
-7.87382e-10
-8.18906e-10
-8.48414e-10
-8.75408e-10
-9.01518e-10
-9.26594e-10
-9.50806e-10
-9.74413e-10
-9.9752e-10
-1.02037e-09
-1.04312e-09
-1.06548e-09
-1.08796e-09
-1.11024e-09
-1.13238e-09
-1.15446e-09
-1.17663e-09
-1.1988e-09
-1.22065e-09
-1.2429e-09
-1.26491e-09
-1.2869e-09
-1.30887e-09
-1.33107e-09
-1.35291e-09
-1.37515e-09
-1.39698e-09
-1.41873e-09
-1.4407e-09
-1.46254e-09
-1.48461e-09
-1.50678e-09
-1.52885e-09
-1.55078e-09
-1.57282e-09
-1.59471e-09
-1.61704e-09
-1.63891e-09
-1.66058e-09
-1.68263e-09
-1.7046e-09
-1.72624e-09
-1.74807e-09
-1.77e-09
-1.79184e-09
-1.81372e-09
-1.83579e-09
-1.85815e-09
-1.88077e-09
-1.90432e-09
-1.92875e-09
-1.95486e-09
-1.9836e-09
-2.01607e-09
-2.05397e-09
-2.10014e-09
-2.15855e-09
-2.23455e-09
-2.33588e-09
-2.47428e-09
-2.6647e-09
-2.92924e-09
-3.29998e-09
-3.81874e-09
-4.54579e-09
-5.56121e-09
-6.97381e-09
-8.92399e-09
-1.15929e-08
-1.5204e-08
-1.99365e-08
-2.59119e-08
-3.27877e-08
-4.09658e-08
-3.11178e-11
2.95411e-10
-4.83508e-10
-5.88884e-10
-6.17279e-10
-6.48181e-10
-6.83431e-10
-7.19177e-10
-7.53975e-10
-7.87224e-10
-8.18962e-10
-8.48445e-10
-8.7592e-10
-9.01653e-10
-9.26615e-10
-9.50889e-10
-9.74405e-10
-9.97615e-10
-1.0205e-09
-1.04304e-09
-1.06556e-09
-1.08794e-09
-1.11023e-09
-1.13244e-09
-1.15445e-09
-1.17668e-09
-1.19879e-09
-1.22086e-09
-1.24281e-09
-1.26496e-09
-1.28688e-09
-1.30889e-09
-1.33097e-09
-1.35293e-09
-1.37483e-09
-1.39658e-09
-1.41846e-09
-1.44049e-09
-1.46246e-09
-1.48451e-09
-1.50676e-09
-1.52891e-09
-1.55078e-09
-1.57273e-09
-1.59461e-09
-1.61668e-09
-1.63867e-09
-1.66043e-09
-1.68256e-09
-1.70437e-09
-1.72615e-09
-1.74803e-09
-1.76983e-09
-1.79158e-09
-1.81346e-09
-1.8354e-09
-1.85769e-09
-1.88028e-09
-1.90353e-09
-1.92797e-09
-1.95379e-09
-1.98233e-09
-2.01442e-09
-2.05212e-09
-2.09801e-09
-2.15581e-09
-2.23116e-09
-2.33201e-09
-2.4697e-09
-2.65938e-09
-2.92366e-09
-3.2937e-09
-3.81263e-09
-4.54037e-09
-5.55786e-09
-6.97425e-09
-8.93023e-09
-1.16072e-08
-1.5234e-08
-2.01752e-08
-2.73839e-08
-3.30008e-08
-4.1053e-08
-2.65863e-10
-6.96074e-10
-6.08937e-10
-5.92776e-10
-6.16485e-10
-6.47421e-10
-6.82792e-10
-7.18827e-10
-7.53701e-10
-7.86977e-10
-8.18823e-10
-8.48285e-10
-8.75612e-10
-9.01509e-10
-9.2643e-10
-9.50705e-10
-9.74233e-10
-9.97531e-10
-1.02041e-09
-1.0429e-09
-1.06544e-09
-1.08781e-09
-1.11007e-09
-1.13232e-09
-1.15437e-09
-1.17656e-09
-1.19859e-09
-1.22074e-09
-1.24275e-09
-1.26478e-09
-1.28672e-09
-1.3088e-09
-1.3308e-09
-1.35264e-09
-1.37455e-09
-1.39634e-09
-1.4183e-09
-1.44022e-09
-1.46215e-09
-1.48414e-09
-1.50596e-09
-1.52774e-09
-1.54979e-09
-1.57198e-09
-1.59407e-09
-1.61626e-09
-1.63834e-09
-1.66024e-09
-1.68232e-09
-1.70418e-09
-1.72592e-09
-1.74769e-09
-1.76948e-09
-1.79127e-09
-1.81303e-09
-1.83491e-09
-1.85707e-09
-1.87944e-09
-1.90266e-09
-1.92686e-09
-1.95259e-09
-1.98075e-09
-2.01255e-09
-2.04978e-09
-2.09506e-09
-2.15233e-09
-2.22683e-09
-2.32687e-09
-2.46321e-09
-2.6516e-09
-2.91414e-09
-3.28245e-09
-3.79925e-09
-4.52473e-09
-5.54027e-09
-6.95504e-09
-8.91003e-09
-1.15866e-08
-1.52128e-08
-2.00463e-08
-2.64593e-08
-3.29932e-08
-4.11637e-08
-5.24294e-10
-6.97081e-10
-6.06192e-10
-5.92451e-10
-6.16402e-10
-6.47395e-10
-6.82776e-10
-7.18829e-10
-7.53714e-10
-7.86996e-10
-8.18791e-10
-8.48303e-10
-8.75637e-10
-9.01473e-10
-9.26465e-10
-9.50728e-10
-9.74251e-10
-9.97615e-10
-1.02024e-09
-1.04283e-09
-1.06545e-09
-1.0878e-09
-1.11009e-09
-1.13234e-09
-1.15433e-09
-1.17653e-09
-1.19859e-09
-1.22063e-09
-1.24277e-09
-1.26479e-09
-1.28676e-09
-1.30882e-09
-1.3308e-09
-1.35273e-09
-1.37458e-09
-1.39648e-09
-1.41852e-09
-1.44048e-09
-1.46252e-09
-1.48469e-09
-1.50661e-09
-1.52844e-09
-1.55034e-09
-1.57228e-09
-1.59422e-09
-1.61633e-09
-1.63836e-09
-1.66022e-09
-1.68227e-09
-1.7041e-09
-1.72583e-09
-1.7475e-09
-1.76931e-09
-1.79102e-09
-1.81269e-09
-1.83453e-09
-1.85656e-09
-1.87885e-09
-1.90189e-09
-1.92593e-09
-1.95139e-09
-1.97921e-09
-2.0106e-09
-2.04734e-09
-2.09205e-09
-2.14845e-09
-2.22198e-09
-2.32069e-09
-2.45523e-09
-2.64151e-09
-2.90151e-09
-3.26634e-09
-3.779e-09
-4.49932e-09
-5.50875e-09
-6.91614e-09
-8.86303e-09
-1.15306e-08
-1.51474e-08
-1.99693e-08
-2.63804e-08
-3.28895e-08
-4.11344e-08
-6.75925e-10
2.39181e-10
-4.8498e-10
-5.90579e-10
-6.1727e-10
-6.48301e-10
-6.83368e-10
-7.19174e-10
-7.53954e-10
-7.87237e-10
-8.18873e-10
-8.48468e-10
-8.75966e-10
-9.0181e-10
-9.26722e-10
-9.5111e-10
-9.74447e-10
-9.97701e-10
-1.02085e-09
-1.04304e-09
-1.06549e-09
-1.08789e-09
-1.11024e-09
-1.13256e-09
-1.15448e-09
-1.17695e-09
-1.19871e-09
-1.22114e-09
-1.24286e-09
-1.26487e-09
-1.28709e-09
-1.30897e-09
-1.3313e-09
-1.35296e-09
-1.3748e-09
-1.39656e-09
-1.41849e-09
-1.4403e-09
-1.46213e-09
-1.48411e-09
-1.50626e-09
-1.52832e-09
-1.55028e-09
-1.5722e-09
-1.59424e-09
-1.61643e-09
-1.63859e-09
-1.66039e-09
-1.68254e-09
-1.70413e-09
-1.72604e-09
-1.74747e-09
-1.76919e-09
-1.79089e-09
-1.81259e-09
-1.83446e-09
-1.85623e-09
-1.87842e-09
-1.90127e-09
-1.92505e-09
-1.95051e-09
-1.97765e-09
-2.00864e-09
-2.04477e-09
-2.08866e-09
-2.1441e-09
-2.21663e-09
-2.31328e-09
-2.44569e-09
-2.62917e-09
-2.88538e-09
-3.24516e-09
-3.75169e-09
-4.46395e-09
-5.46311e-09
-6.85734e-09
-8.78893e-09
-1.14389e-08
-1.504e-08
-1.99761e-08
-2.7192e-08
-3.27351e-08
-4.09693e-08
-7.07566e-10
-1.18623e-09
-6.9131e-10
-5.95698e-10
-6.18077e-10
-6.49281e-10
-6.84175e-10
-7.19893e-10
-7.54259e-10
-7.87439e-10
-8.18854e-10
-8.48316e-10
-8.75494e-10
-9.01315e-10
-9.26609e-10
-9.50663e-10
-9.74333e-10
-9.97681e-10
-1.02001e-09
-1.04296e-09
-1.06547e-09
-1.08781e-09
-1.11008e-09
-1.13228e-09
-1.15444e-09
-1.17628e-09
-1.19855e-09
-1.22036e-09
-1.2427e-09
-1.26481e-09
-1.28653e-09
-1.30886e-09
-1.33048e-09
-1.35295e-09
-1.37493e-09
-1.39693e-09
-1.41891e-09
-1.44073e-09
-1.46264e-09
-1.48461e-09
-1.50658e-09
-1.52864e-09
-1.55072e-09
-1.57252e-09
-1.59474e-09
-1.61671e-09
-1.63869e-09
-1.66034e-09
-1.68196e-09
-1.70398e-09
-1.72529e-09
-1.74709e-09
-1.76897e-09
-1.7903e-09
-1.81199e-09
-1.83337e-09
-1.85541e-09
-1.87746e-09
-1.90009e-09
-1.92384e-09
-1.94837e-09
-1.97581e-09
-2.00616e-09
-2.04169e-09
-2.08473e-09
-2.13901e-09
-2.20985e-09
-2.30477e-09
-2.43458e-09
-2.61426e-09
-2.86608e-09
-3.21964e-09
-3.71796e-09
-4.41928e-09
-5.40438e-09
-6.78161e-09
-8.68998e-09
-1.13139e-08
-1.48781e-08
-1.95552e-08
-2.54832e-08
-3.24588e-08
-4.07364e-08
-5.23754e-10
6.33849e-10
-4.81588e-10
-5.9239e-10
-6.19564e-10
-6.51106e-10
-6.85877e-10
-7.21065e-10
-7.55615e-10
-7.88361e-10
-8.19879e-10
-8.49088e-10
-8.76594e-10
-9.02603e-10
-9.27656e-10
-9.5177e-10
-9.7545e-10
-9.9855e-10
-1.0214e-09
-1.04387e-09
-1.06577e-09
-1.08824e-09
-1.11107e-09
-1.1331e-09
-1.15531e-09
-1.17754e-09
-1.19954e-09
-1.22175e-09
-1.24378e-09
-1.26568e-09
-1.28774e-09
-1.30968e-09
-1.33206e-09
-1.35386e-09
-1.37583e-09
-1.39802e-09
-1.42029e-09
-1.44152e-09
-1.46328e-09
-1.48518e-09
-1.50718e-09
-1.5292e-09
-1.55145e-09
-1.57341e-09
-1.5958e-09
-1.61778e-09
-1.63972e-09
-1.66128e-09
-1.68311e-09
-1.70482e-09
-1.72639e-09
-1.74811e-09
-1.76948e-09
-1.79118e-09
-1.81264e-09
-1.83438e-09
-1.85592e-09
-1.8777e-09
-1.89964e-09
-1.92361e-09
-1.94828e-09
-1.9747e-09
-2.00469e-09
-2.03956e-09
-2.08168e-09
-2.13479e-09
-2.20408e-09
-2.29651e-09
-2.42322e-09
-2.59806e-09
-2.844e-09
-3.19003e-09
-3.67837e-09
-4.36594e-09
-5.33344e-09
-6.68695e-09
-8.5669e-09
-1.11567e-08
-1.46848e-08
-1.95238e-08
-2.69838e-08
-3.21564e-08
-4.04675e-08
-4.42734e-10
-1.14948e-09
-6.70536e-10
-5.99517e-10
-6.20762e-10
-6.52436e-10
-6.86562e-10
-7.21052e-10
-7.5474e-10
-7.87752e-10
-8.18809e-10
-8.48279e-10
-8.75509e-10
-9.01375e-10
-9.26257e-10
-9.50326e-10
-9.73785e-10
-9.97302e-10
-1.02013e-09
-1.04251e-09
-1.0654e-09
-1.08792e-09
-1.10939e-09
-1.13195e-09
-1.15401e-09
-1.17633e-09
-1.19834e-09
-1.22035e-09
-1.2422e-09
-1.26424e-09
-1.28631e-09
-1.30837e-09
-1.33044e-09
-1.35257e-09
-1.3747e-09
-1.39671e-09
-1.41888e-09
-1.44141e-09
-1.46315e-09
-1.48525e-09
-1.50708e-09
-1.52898e-09
-1.55139e-09
-1.57323e-09
-1.59461e-09
-1.61645e-09
-1.63799e-09
-1.65984e-09
-1.68155e-09
-1.70359e-09
-1.72494e-09
-1.74586e-09
-1.76794e-09
-1.78948e-09
-1.81106e-09
-1.83199e-09
-1.85406e-09
-1.87598e-09
-1.89863e-09
-1.92133e-09
-1.94556e-09
-1.97161e-09
-2.00098e-09
-2.03511e-09
-2.07612e-09
-2.12714e-09
-2.19424e-09
-2.28412e-09
-2.40811e-09
-2.57937e-09
-2.81881e-09
-3.15611e-09
-3.63283e-09
-4.3046e-09
-5.25081e-09
-6.57709e-09
-8.42229e-09
-1.09703e-08
-1.44455e-08
-1.90311e-08
-2.50105e-08
-3.16491e-08
-7.51736e-10
-6.89871e-10
-6.02743e-10
-6.20671e-10
-6.56166e-10
-6.89715e-10
-7.23968e-10
-7.5737e-10
-7.89694e-10
-8.20476e-10
-8.49263e-10
-8.76779e-10
-9.02835e-10
-9.28321e-10
-9.5218e-10
-9.76313e-10
-9.98918e-10
-1.02157e-09
-1.04426e-09
-1.06733e-09
-1.08947e-09
-1.11207e-09
-1.13403e-09
-1.15572e-09
-1.17774e-09
-1.19988e-09
-1.22198e-09
-1.24417e-09
-1.26641e-09
-1.28813e-09
-1.31041e-09
-1.33228e-09
-1.35424e-09
-1.37617e-09
-1.39832e-09
-1.42046e-09
-1.44294e-09
-1.4653e-09
-1.48693e-09
-1.5089e-09
-1.53114e-09
-1.55286e-09
-1.57471e-09
-1.59606e-09
-1.61807e-09
-1.6403e-09
-1.66154e-09
-1.68352e-09
-1.70497e-09
-1.72643e-09
-1.749e-09
-1.76996e-09
-1.79084e-09
-1.81243e-09
-1.83443e-09
-1.8553e-09
-1.8769e-09
-1.89894e-09
-1.92234e-09
-1.94545e-09
-1.97198e-09
-2.00031e-09
-2.03336e-09
-2.07324e-09
-2.12389e-09
-2.18875e-09
-2.27631e-09
-2.39599e-09
-2.56249e-09
-2.79435e-09
-3.1223e-09
-3.58597e-09
-4.23954e-09
-5.1616e-09
-6.45662e-09
-8.26147e-09
-1.07639e-08
-1.41821e-08
-1.86941e-08
-2.50064e-08
1.22426e-12
-8.04337e-10
-5.93504e-10
-6.13283e-10
-6.50657e-10
-6.86334e-10
-7.21441e-10
-7.54866e-10
-7.87996e-10
-8.18889e-10
-8.48343e-10
-8.75711e-10
-9.01609e-10
-9.26305e-10
-9.50764e-10
-9.7364e-10
-9.97627e-10
-1.02052e-09
-1.04297e-09
-1.06583e-09
-1.08795e-09
-1.10969e-09
-1.13163e-09
-1.15443e-09
-1.17697e-09
-1.19857e-09
-1.22061e-09
-1.24265e-09
-1.26351e-09
-1.28669e-09
-1.30926e-09
-1.33094e-09
-1.35291e-09
-1.3752e-09
-1.39698e-09
-1.41922e-09
-1.44186e-09
-1.46364e-09
-1.48548e-09
-1.5072e-09
-1.52927e-09
-1.55061e-09
-1.57309e-09
-1.59484e-09
-1.6167e-09
-1.63757e-09
-1.66025e-09
-1.68171e-09
-1.70394e-09
-1.7251e-09
-1.74625e-09
-1.7673e-09
-1.78953e-09
-1.81124e-09
-1.83205e-09
-1.85347e-09
-1.87502e-09
-1.8971e-09
-1.91886e-09
-1.94303e-09
-1.9685e-09
-1.99652e-09
-2.02877e-09
-2.06795e-09
-2.11488e-09
-2.17884e-09
-2.2625e-09
-2.37901e-09
-2.53827e-09
-2.76216e-09
-3.07884e-09
-3.52822e-09
-4.1604e-09
-5.06061e-09
-6.32196e-09
-8.08134e-09
-1.05373e-08
-1.3894e-08
-1.81671e-08
-2.54049e-08
4.45461e-11
-6.04669e-10
-5.9417e-10
-6.21574e-10
-6.52538e-10
-6.88066e-10
-7.22772e-10
-7.55938e-10
-7.88133e-10
-8.18461e-10
-8.47175e-10
-8.75095e-10
-9.01362e-10
-9.26691e-10
-9.50856e-10
-9.73882e-10
-9.97523e-10
-1.02028e-09
-1.04375e-09
-1.06496e-09
-1.08786e-09
-1.11007e-09
-1.13211e-09
-1.15364e-09
-1.17656e-09
-1.19846e-09
-1.22077e-09
-1.24216e-09
-1.26421e-09
-1.28711e-09
-1.30862e-09
-1.33073e-09
-1.35205e-09
-1.37494e-09
-1.39691e-09
-1.41882e-09
-1.44038e-09
-1.4626e-09
-1.48489e-09
-1.50681e-09
-1.52829e-09
-1.55086e-09
-1.57254e-09
-1.59506e-09
-1.61726e-09
-1.63851e-09
-1.66119e-09
-1.68269e-09
-1.70493e-09
-1.72727e-09
-1.74902e-09
-1.77112e-09
-1.79322e-09
-1.81528e-09
-1.83783e-09
-1.86137e-09
-1.88394e-09
-1.90732e-09
-1.93264e-09
-1.96029e-09
-1.98896e-09
-2.02131e-09
-2.05919e-09
-2.1039e-09
-2.15912e-09
-2.23009e-09
-2.32214e-09
-2.44463e-09
-2.61639e-09
-2.84708e-09
-3.15991e-09
-3.60609e-09
-4.21862e-09
-5.0714e-09
-6.25574e-09
-7.89966e-09
-1.01784e-08
-1.33218e-08
-1.75988e-08
-2.43288e-08
-8.8371e-10
-9.66019e-10
-5.63004e-10
-5.9296e-10
-6.25563e-10
-6.58189e-10
-6.9123e-10
-7.24813e-10
-7.575e-10
-7.88764e-10
-8.19502e-10
-8.48422e-10
-8.75769e-10
-9.02952e-10
-9.27343e-10
-9.51917e-10
-9.75851e-10
-9.98484e-10
-1.02152e-09
-1.04422e-09
-1.06669e-09
-1.08847e-09
-1.11108e-09
-1.1334e-09
-1.15589e-09
-1.178e-09
-1.19955e-09
-1.22156e-09
-1.24397e-09
-1.26582e-09
-1.28808e-09
-1.31024e-09
-1.33177e-09
-1.354e-09
-1.37588e-09
-1.39822e-09
-1.4197e-09
-1.44232e-09
-1.46443e-09
-1.48578e-09
-1.50807e-09
-1.53076e-09
-1.55197e-09
-1.57393e-09
-1.59668e-09
-1.61803e-09
-1.64023e-09
-1.66227e-09
-1.68416e-09
-1.70651e-09
-1.72772e-09
-1.74967e-09
-1.7722e-09
-1.79435e-09
-1.81655e-09
-1.83899e-09
-1.86138e-09
-1.88495e-09
-1.90918e-09
-1.93399e-09
-1.96088e-09
-1.99083e-09
-2.02295e-09
-2.06031e-09
-2.10605e-09
-2.16266e-09
-2.23471e-09
-2.32959e-09
-2.45641e-09
-2.62988e-09
-2.86769e-09
-3.19804e-09
-3.64992e-09
-4.28377e-09
-5.16507e-09
-6.39007e-09
-8.08913e-09
-1.04374e-08
-1.36709e-08
-1.81057e-08
-2.38175e-08
-2.93513e-08
-4.00762e-10
3.93087e-10
-5.23402e-10
-5.88465e-10
-6.22237e-10
-6.54721e-10
-6.87862e-10
-7.21351e-10
-7.54304e-10
-7.86861e-10
-8.1753e-10
-8.47322e-10
-8.7559e-10
-9.01309e-10
-9.26688e-10
-9.5111e-10
-9.74249e-10
-9.9807e-10
-1.02056e-09
-1.0429e-09
-1.0659e-09
-1.08822e-09
-1.11055e-09
-1.13251e-09
-1.15426e-09
-1.17638e-09
-1.19851e-09
-1.22101e-09
-1.24265e-09
-1.26471e-09
-1.28682e-09
-1.30835e-09
-1.33086e-09
-1.35287e-09
-1.37488e-09
-1.39675e-09
-1.41956e-09
-1.44123e-09
-1.46292e-09
-1.48525e-09
-1.50721e-09
-1.5295e-09
-1.55128e-09
-1.57328e-09
-1.59456e-09
-1.61735e-09
-1.63907e-09
-1.66132e-09
-1.68309e-09
-1.70523e-09
-1.7272e-09
-1.74871e-09
-1.77113e-09
-1.79312e-09
-1.81586e-09
-1.83762e-09
-1.85997e-09
-1.88344e-09
-1.90752e-09
-1.93297e-09
-1.95964e-09
-1.9884e-09
-2.0214e-09
-2.05948e-09
-2.10569e-09
-2.16199e-09
-2.236e-09
-2.332e-09
-2.46253e-09
-2.64092e-09
-2.88562e-09
-3.22008e-09
-3.69095e-09
-4.34455e-09
-5.2565e-09
-6.5224e-09
-8.27598e-09
-1.06937e-08
-1.4012e-08
-1.8569e-08
-2.56471e-08
-3.02159e-08
-3.65833e-08
-4.08612e-10
-5.8937e-10
-5.44899e-10
-5.87003e-10
-6.1898e-10
-6.52079e-10
-6.86053e-10
-7.19385e-10
-7.54201e-10
-7.8651e-10
-8.17711e-10
-8.47772e-10
-8.74609e-10
-9.01679e-10
-9.27257e-10
-9.51097e-10
-9.75352e-10
-9.9764e-10
-1.0213e-09
-1.04347e-09
-1.06582e-09
-1.08809e-09
-1.1098e-09
-1.13324e-09
-1.15556e-09
-1.17679e-09
-1.19871e-09
-1.22025e-09
-1.24368e-09
-1.26562e-09
-1.28727e-09
-1.30865e-09
-1.33104e-09
-1.35382e-09
-1.37627e-09
-1.39776e-09
-1.4182e-09
-1.44163e-09
-1.46351e-09
-1.48482e-09
-1.50672e-09
-1.5298e-09
-1.55124e-09
-1.57335e-09
-1.59623e-09
-1.61653e-09
-1.63897e-09
-1.66209e-09
-1.68367e-09
-1.70549e-09
-1.72636e-09
-1.74915e-09
-1.77136e-09
-1.79407e-09
-1.8146e-09
-1.83786e-09
-1.8606e-09
-1.88314e-09
-1.90789e-09
-1.93174e-09
-1.95937e-09
-1.98838e-09
-2.02072e-09
-2.05939e-09
-2.1048e-09
-2.16399e-09
-2.23773e-09
-2.33543e-09
-2.46788e-09
-2.64697e-09
-2.89596e-09
-3.24383e-09
-3.72646e-09
-4.39874e-09
-5.33818e-09
-6.64089e-09
-8.44463e-09
-1.09245e-08
-1.43174e-08
-1.8932e-08
-2.50762e-08
-3.0722e-08
-3.72793e-08
-4.60627e-10
-3.98101e-10
-4.97352e-10
-5.83951e-10
-6.17389e-10
-6.51836e-10
-6.87636e-10
-7.23342e-10
-7.56315e-10
-7.89032e-10
-8.19969e-10
-8.48593e-10
-8.77246e-10
-9.02317e-10
-9.27667e-10
-9.5261e-10
-9.75561e-10
-9.99666e-10
-1.02159e-09
-1.04385e-09
-1.06644e-09
-1.08912e-09
-1.11238e-09
-1.13346e-09
-1.15547e-09
-1.17722e-09
-1.20046e-09
-1.22279e-09
-1.24332e-09
-1.26584e-09
-1.28783e-09
-1.31076e-09
-1.33258e-09
-1.35419e-09
-1.37543e-09
-1.39829e-09
-1.42183e-09
-1.44192e-09
-1.46429e-09
-1.48674e-09
-1.50927e-09
-1.53044e-09
-1.55291e-09
-1.57377e-09
-1.59626e-09
-1.61946e-09
-1.64091e-09
-1.66161e-09
-1.68365e-09
-1.70592e-09
-1.72902e-09
-1.75039e-09
-1.77156e-09
-1.79326e-09
-1.81694e-09
-1.83777e-09
-1.86056e-09
-1.88452e-09
-1.90768e-09
-1.93358e-09
-1.95884e-09
-1.98818e-09
-2.02156e-09
-2.05923e-09
-2.10684e-09
-2.16392e-09
-2.23866e-09
-2.33894e-09
-2.47251e-09
-2.65725e-09
-2.91259e-09
-3.26646e-09
-3.76156e-09
-4.45014e-09
-5.41319e-09
-6.74897e-09
-8.59824e-09
-1.11334e-08
-1.45927e-08
-1.93278e-08
-2.56548e-08
-3.10566e-08
-3.99659e-08
-5.16897e-10
-9.00294e-10
-5.68845e-10
-5.94104e-10
-6.22431e-10
-6.57485e-10
-6.93051e-10
-7.27629e-10
-7.60704e-10
-7.92281e-10
-8.22971e-10
-8.52464e-10
-8.78792e-10
-9.04693e-10
-9.29599e-10
-9.53546e-10
-9.7718e-10
-1.0002e-09
-1.02322e-09
-1.04661e-09
-1.06799e-09
-1.09111e-09
-1.11302e-09
-1.13516e-09
-1.15727e-09
-1.17953e-09
-1.20096e-09
-1.22338e-09
-1.24594e-09
-1.26738e-09
-1.28908e-09
-1.31109e-09
-1.33428e-09
-1.35566e-09
-1.37855e-09
-1.39945e-09
-1.42244e-09
-1.44517e-09
-1.46629e-09
-1.48949e-09
-1.51105e-09
-1.53342e-09
-1.5554e-09
-1.57705e-09
-1.59832e-09
-1.62013e-09
-1.64137e-09
-1.66434e-09
-1.68602e-09
-1.70742e-09
-1.72954e-09
-1.75092e-09
-1.77246e-09
-1.7961e-09
-1.81692e-09
-1.8399e-09
-1.86154e-09
-1.8845e-09
-1.90869e-09
-1.93302e-09
-1.96054e-09
-1.98915e-09
-2.02231e-09
-2.05955e-09
-2.10647e-09
-2.16417e-09
-2.24096e-09
-2.34053e-09
-2.4776e-09
-2.66495e-09
-2.92317e-09
-3.28559e-09
-3.7894e-09
-4.49327e-09
-5.47421e-09
-6.83693e-09
-8.72042e-09
-1.13038e-08
-1.48126e-08
-1.95392e-08
-2.55331e-08
-3.17906e-08
-4.04239e-08
-5.38297e-10
-9.71994e-10
-6.0567e-10
-5.96858e-10
-6.24098e-10
-6.58032e-10
-6.93343e-10
-7.27374e-10
-7.60275e-10
-7.91348e-10
-8.22177e-10
-8.51302e-10
-8.78255e-10
-9.03647e-10
-9.28499e-10
-9.52649e-10
-9.7585e-10
-9.99243e-10
-1.02199e-09
-1.04508e-09
-1.06689e-09
-1.08993e-09
-1.11107e-09
-1.13353e-09
-1.15585e-09
-1.1775e-09
-1.20039e-09
-1.22203e-09
-1.24379e-09
-1.26612e-09
-1.28831e-09
-1.31084e-09
-1.33244e-09
-1.35508e-09
-1.37631e-09
-1.39917e-09
-1.42114e-09
-1.44366e-09
-1.46532e-09
-1.48794e-09
-1.50982e-09
-1.53201e-09
-1.55397e-09
-1.57568e-09
-1.59716e-09
-1.61898e-09
-1.64062e-09
-1.66286e-09
-1.68422e-09
-1.70567e-09
-1.72805e-09
-1.75004e-09
-1.77153e-09
-1.79369e-09
-1.81582e-09
-1.83749e-09
-1.86025e-09
-1.88325e-09
-1.90639e-09
-1.93214e-09
-1.95783e-09
-1.98713e-09
-2.0202e-09
-2.05771e-09
-2.10427e-09
-2.16289e-09
-2.23859e-09
-2.34043e-09
-2.47736e-09
-2.66614e-09
-2.9281e-09
-3.29393e-09
-3.80427e-09
-4.5183e-09
-5.51308e-09
-6.89578e-09
-8.80559e-09
-1.14236e-08
-1.49686e-08
-1.96997e-08
-2.57024e-08
-3.23017e-08
-4.07918e-08
-5.36237e-10
-6.89483e-10
-5.27948e-10
-5.92957e-10
-6.23859e-10
-6.5837e-10
-6.93336e-10
-7.27465e-10
-7.60299e-10
-7.91759e-10
-8.226e-10
-8.51842e-10
-8.79672e-10
-9.05258e-10
-9.2995e-10
-9.5412e-10
-9.7746e-10
-1.0007e-09
-1.02335e-09
-1.04534e-09
-1.06813e-09
-1.09019e-09
-1.1126e-09
-1.13505e-09
-1.15726e-09
-1.17923e-09
-1.20142e-09
-1.22353e-09
-1.24563e-09
-1.26745e-09
-1.28947e-09
-1.31124e-09
-1.33353e-09
-1.35534e-09
-1.37798e-09
-1.3994e-09
-1.42143e-09
-1.44336e-09
-1.46532e-09
-1.48745e-09
-1.50941e-09
-1.53162e-09
-1.55367e-09
-1.57546e-09
-1.59727e-09
-1.61935e-09
-1.64185e-09
-1.66301e-09
-1.68552e-09
-1.70708e-09
-1.72831e-09
-1.75097e-09
-1.77246e-09
-1.79495e-09
-1.8167e-09
-1.83878e-09
-1.86096e-09
-1.8839e-09
-1.90722e-09
-1.9317e-09
-1.9582e-09
-1.98716e-09
-2.01919e-09
-2.0575e-09
-2.10436e-09
-2.16205e-09
-2.23833e-09
-2.34003e-09
-2.47757e-09
-2.66702e-09
-2.93069e-09
-3.29893e-09
-3.81354e-09
-4.53384e-09
-5.53878e-09
-6.93545e-09
-8.86469e-09
-1.1508e-08
-1.50889e-08
-1.99196e-08
-2.61489e-08
-3.41599e-08
-4.12278e-08
-5.42863e-10
-9.7512e-10
-6.43008e-10
-5.95624e-10
-6.23307e-10
-6.57845e-10
-6.92671e-10
-7.26822e-10
-7.59628e-10
-7.9119e-10
-8.2218e-10
-8.51558e-10
-8.79033e-10
-9.04737e-10
-9.29464e-10
-9.53024e-10
-9.76578e-10
-9.9988e-10
-1.02254e-09
-1.04535e-09
-1.06737e-09
-1.09009e-09
-1.11206e-09
-1.13424e-09
-1.15663e-09
-1.17818e-09
-1.20081e-09
-1.22226e-09
-1.24485e-09
-1.26654e-09
-1.2889e-09
-1.31093e-09
-1.33304e-09
-1.35511e-09
-1.37699e-09
-1.39873e-09
-1.42077e-09
-1.44267e-09
-1.46476e-09
-1.4868e-09
-1.50876e-09
-1.53092e-09
-1.55297e-09
-1.57473e-09
-1.59652e-09
-1.61875e-09
-1.64092e-09
-1.66271e-09
-1.68466e-09
-1.7065e-09
-1.72815e-09
-1.75014e-09
-1.77154e-09
-1.79398e-09
-1.81552e-09
-1.83776e-09
-1.85989e-09
-1.8825e-09
-1.90596e-09
-1.93063e-09
-1.95676e-09
-1.98541e-09
-2.0176e-09
-2.05525e-09
-2.10104e-09
-2.15941e-09
-2.2355e-09
-2.33677e-09
-2.47428e-09
-2.66445e-09
-2.92873e-09
-3.29824e-09
-3.8152e-09
-4.53927e-09
-5.55021e-09
-6.95596e-09
-8.89792e-09
-1.15571e-08
-1.51561e-08
-1.99107e-08
-2.59174e-08
-3.42528e-08
-4.16273e-08
-4.83905e-10
-4.37642e-10
-5.25701e-10
-5.90831e-10
-6.23569e-10
-6.57625e-10
-6.9233e-10
-7.264e-10
-7.59309e-10
-7.91039e-10
-8.22117e-10
-8.51675e-10
-8.79262e-10
-9.05089e-10
-9.29603e-10
-9.53757e-10
-9.7734e-10
-9.99962e-10
-1.02309e-09
-1.04546e-09
-1.06749e-09
-1.09016e-09
-1.1122e-09
-1.1347e-09
-1.15666e-09
-1.17876e-09
-1.20089e-09
-1.22294e-09
-1.2449e-09
-1.26708e-09
-1.28902e-09
-1.31093e-09
-1.33306e-09
-1.35506e-09
-1.3767e-09
-1.39855e-09
-1.42049e-09
-1.44233e-09
-1.46451e-09
-1.48657e-09
-1.50855e-09
-1.53064e-09
-1.55268e-09
-1.57429e-09
-1.59618e-09
-1.61842e-09
-1.64076e-09
-1.66266e-09
-1.68462e-09
-1.70638e-09
-1.72814e-09
-1.75015e-09
-1.77205e-09
-1.7937e-09
-1.81547e-09
-1.83737e-09
-1.85966e-09
-1.88252e-09
-1.90543e-09
-1.93006e-09
-1.95579e-09
-1.98427e-09
-2.01606e-09
-2.05373e-09
-2.09983e-09
-2.15698e-09
-2.23268e-09
-2.33303e-09
-2.47e-09
-2.65957e-09
-2.92332e-09
-3.29241e-09
-3.80957e-09
-4.53448e-09
-5.54743e-09
-6.95675e-09
-8.90433e-09
-1.15716e-08
-1.51848e-08
-2.00581e-08
-2.64998e-08
-3.44472e-08
-4.18806e-08
-5.23016e-10
-7.11886e-10
-5.96127e-10
-5.93044e-10
-6.2331e-10
-6.5741e-10
-6.92133e-10
-7.26241e-10
-7.59153e-10
-7.90886e-10
-8.22002e-10
-8.51588e-10
-8.79251e-10
-9.0502e-10
-9.29496e-10
-9.53485e-10
-9.77141e-10
-9.99939e-10
-1.02273e-09
-1.04545e-09
-1.06745e-09
-1.09009e-09
-1.11207e-09
-1.13455e-09
-1.15657e-09
-1.17867e-09
-1.20066e-09
-1.22268e-09
-1.24486e-09
-1.2669e-09
-1.28887e-09
-1.31085e-09
-1.33284e-09
-1.35479e-09
-1.37647e-09
-1.39837e-09
-1.42038e-09
-1.44221e-09
-1.46443e-09
-1.48651e-09
-1.50846e-09
-1.53047e-09
-1.55246e-09
-1.57407e-09
-1.59595e-09
-1.61816e-09
-1.64039e-09
-1.66234e-09
-1.68438e-09
-1.70629e-09
-1.72793e-09
-1.7498e-09
-1.77157e-09
-1.7934e-09
-1.81512e-09
-1.83686e-09
-1.85915e-09
-1.8816e-09
-1.90476e-09
-1.92887e-09
-1.95464e-09
-1.98269e-09
-2.01414e-09
-2.05158e-09
-2.09657e-09
-2.15366e-09
-2.22842e-09
-2.32795e-09
-2.46372e-09
-2.65192e-09
-2.91395e-09
-3.28127e-09
-3.79642e-09
-4.51913e-09
-5.53008e-09
-6.93757e-09
-8.88369e-09
-1.15505e-08
-1.51632e-08
-1.9975e-08
-2.62128e-08
-3.44035e-08
-4.20014e-08
-5.28875e-10
-7.23108e-10
-5.97184e-10
-5.9307e-10
-6.23256e-10
-6.57404e-10
-6.92141e-10
-7.26241e-10
-7.59169e-10
-7.90891e-10
-8.2197e-10
-8.51596e-10
-8.79211e-10
-9.05063e-10
-9.29504e-10
-9.53454e-10
-9.77051e-10
-9.99954e-10
-1.02271e-09
-1.04545e-09
-1.06744e-09
-1.09008e-09
-1.11208e-09
-1.13451e-09
-1.15654e-09
-1.17868e-09
-1.20056e-09
-1.22275e-09
-1.24479e-09
-1.26695e-09
-1.28889e-09
-1.31087e-09
-1.33276e-09
-1.35481e-09
-1.37642e-09
-1.39831e-09
-1.4204e-09
-1.44214e-09
-1.46441e-09
-1.48648e-09
-1.50847e-09
-1.53039e-09
-1.55241e-09
-1.57404e-09
-1.59595e-09
-1.61814e-09
-1.6403e-09
-1.66227e-09
-1.68431e-09
-1.70617e-09
-1.7279e-09
-1.74961e-09
-1.7714e-09
-1.79308e-09
-1.81476e-09
-1.83641e-09
-1.85861e-09
-1.88095e-09
-1.90395e-09
-1.92794e-09
-1.95332e-09
-1.98119e-09
-2.01217e-09
-2.04905e-09
-2.09354e-09
-2.14982e-09
-2.22326e-09
-2.32168e-09
-2.45575e-09
-2.64207e-09
-2.90133e-09
-3.26502e-09
-3.77596e-09
-4.49346e-09
-5.49819e-09
-6.89829e-09
-8.83604e-09
-1.14937e-08
-1.50971e-08
-1.99006e-08
-2.61437e-08
-3.43236e-08
-4.19625e-08
-4.81329e-10
-4.72035e-10
-5.27315e-10
-5.91315e-10
-6.23381e-10
-6.57693e-10
-6.92296e-10
-7.26405e-10
-7.59297e-10
-7.91033e-10
-8.22102e-10
-8.51657e-10
-8.79228e-10
-9.05106e-10
-9.29595e-10
-9.53541e-10
-9.76873e-10
-9.99934e-10
-1.02287e-09
-1.0454e-09
-1.06752e-09
-1.09008e-09
-1.11224e-09
-1.13443e-09
-1.15652e-09
-1.17873e-09
-1.20074e-09
-1.22282e-09
-1.24487e-09
-1.26701e-09
-1.28917e-09
-1.31087e-09
-1.33297e-09
-1.35495e-09
-1.37658e-09
-1.39843e-09
-1.42054e-09
-1.44216e-09
-1.46433e-09
-1.48637e-09
-1.5084e-09
-1.53039e-09
-1.55236e-09
-1.57413e-09
-1.59607e-09
-1.61834e-09
-1.64044e-09
-1.66239e-09
-1.68446e-09
-1.70612e-09
-1.72798e-09
-1.74948e-09
-1.77139e-09
-1.79294e-09
-1.81473e-09
-1.83614e-09
-1.85808e-09
-1.88036e-09
-1.9033e-09
-1.92714e-09
-1.95214e-09
-1.97963e-09
-2.01027e-09
-2.04631e-09
-2.09003e-09
-2.14545e-09
-2.21772e-09
-2.31415e-09
-2.44607e-09
-2.62929e-09
-2.88486e-09
-3.24358e-09
-3.74816e-09
-4.45742e-09
-5.45173e-09
-6.83896e-09
-8.76127e-09
-1.14012e-08
-1.49871e-08
-1.98439e-08
-2.62795e-08
-3.41794e-08
-4.17379e-08
-5.62963e-10
-9.77569e-10
-6.40548e-10
-5.95369e-10
-6.23474e-10
-6.57841e-10
-6.9259e-10
-7.26806e-10
-7.59626e-10
-7.91222e-10
-8.22106e-10
-8.51535e-10
-8.78997e-10
-9.04894e-10
-9.29251e-10
-9.53396e-10
-9.76715e-10
-9.99795e-10
-1.02239e-09
-1.04526e-09
-1.06747e-09
-1.08994e-09
-1.11221e-09
-1.13428e-09
-1.15651e-09
-1.17844e-09
-1.20067e-09
-1.2225e-09
-1.24471e-09
-1.26657e-09
-1.28865e-09
-1.31075e-09
-1.33275e-09
-1.35488e-09
-1.37684e-09
-1.39862e-09
-1.42095e-09
-1.44241e-09
-1.46452e-09
-1.48656e-09
-1.5086e-09