/*--------------------------------*- C++ -*----------------------------------*\
| =========                 |                                                 |
| \\      /  F ield         | OpenFOAM: The Open Source CFD Toolbox           |
|  \\    /   O peration     | Version:  v1906                                 |
|   \\  /    A nd           | Web:      www.OpenFOAM.com                      |
|    \\/     M anipulation  |                                                 |
\*---------------------------------------------------------------------------*/
FoamFile
{
    version     2.0;
    format      ascii;
    class       volScalarField;
    location    "0.48";
    object      p;
}
// * * * * * * * * * * * * * * * * * * * * * * * * * * * * * * * * * * * * * //

dimensions      [0 2 -2 0 0 0 0];


internalField   nonuniform List<scalar> 
243374
(
-5.48403e-15
-7.94319e-10
-5.87039e-10
-6.06592e-10
-6.43927e-10
-6.79441e-10
-7.13852e-10
-7.48045e-10
-7.80605e-10
-8.11382e-10
-8.39272e-10
-8.677e-10
-8.93713e-10
-9.1891e-10
-9.43361e-10
-9.66543e-10
-9.89842e-10
-1.01255e-09
-1.03422e-09
-1.05754e-09
-1.08004e-09
-1.10225e-09
-1.12456e-09
-1.14648e-09
-1.1679e-09
-1.19106e-09
-1.21221e-09
-1.2345e-09
-1.25689e-09
-1.27886e-09
-1.30103e-09
-1.32293e-09
-1.34512e-09
-1.36644e-09
-1.38933e-09
-1.41158e-09
-1.4327e-09
-1.45554e-09
-1.47688e-09
-1.49936e-09
-1.52086e-09
-1.54363e-09
-1.56465e-09
-1.5875e-09
-1.60931e-09
-1.63183e-09
-1.65311e-09
-1.67492e-09
-1.69767e-09
-1.71992e-09
-1.74228e-09
-1.76399e-09
-1.78595e-09
-1.80913e-09
-1.83114e-09
-1.85523e-09
-1.87958e-09
-1.90433e-09
-1.93069e-09
-1.9589e-09
-1.99026e-09
-2.02626e-09
-2.06907e-09
-2.12053e-09
-2.18556e-09
-2.26922e-09
-2.38053e-09
-2.52895e-09
-2.73202e-09
-3.01382e-09
-3.40186e-09
-3.93749e-09
-4.68681e-09
-5.72772e-09
-7.16117e-09
-9.13116e-09
-1.18381e-08
-1.54863e-08
-2.00931e-08
-2.76912e-08
-7.38623e-10
-6.82112e-10
-5.96218e-10
-6.14482e-10
-6.47995e-10
-6.82647e-10
-7.1691e-10
-7.50417e-10
-7.82202e-10
-8.12955e-10
-8.42437e-10
-8.69249e-10
-8.95138e-10
-9.19938e-10
-9.44257e-10
-9.67883e-10
-9.91113e-10
-1.01397e-09
-1.03672e-09
-1.05891e-09
-1.08153e-09
-1.10369e-09
-1.1257e-09
-1.14774e-09
-1.17026e-09
-1.19215e-09
-1.21415e-09
-1.23617e-09
-1.25813e-09
-1.28015e-09
-1.30205e-09
-1.32477e-09
-1.34652e-09
-1.3688e-09
-1.39049e-09
-1.41323e-09
-1.43505e-09
-1.45699e-09
-1.47882e-09
-1.50115e-09
-1.52279e-09
-1.54504e-09
-1.5674e-09
-1.58883e-09
-1.61125e-09
-1.63283e-09
-1.65491e-09
-1.67716e-09
-1.69886e-09
-1.72129e-09
-1.74313e-09
-1.76511e-09
-1.78746e-09
-1.81003e-09
-1.8331e-09
-1.85605e-09
-1.87986e-09
-1.90484e-09
-1.93118e-09
-1.95964e-09
-1.99105e-09
-2.02715e-09
-2.06899e-09
-2.12072e-09
-2.18557e-09
-2.27002e-09
-2.38159e-09
-2.53231e-09
-2.7377e-09
-3.02144e-09
-3.41536e-09
-3.9591e-09
-4.71972e-09
-5.76909e-09
-7.22386e-09
-9.22372e-09
-1.19599e-08
-1.5653e-08
-2.0483e-08
-2.71721e-08
-1.12423e-09
-6.66376e-10
-5.92947e-10
-6.14292e-10
-6.46147e-10
-6.79581e-10
-7.13532e-10
-7.4803e-10
-7.8018e-10
-8.11335e-10
-8.4024e-10
-8.67505e-10
-8.93461e-10
-9.18498e-10
-9.42602e-10
-9.66151e-10
-9.89241e-10
-1.0126e-09
-1.03475e-09
-1.05718e-09
-1.08015e-09
-1.10178e-09
-1.12417e-09
-1.14617e-09
-1.16831e-09
-1.19045e-09
-1.21234e-09
-1.23454e-09
-1.25667e-09
-1.27861e-09
-1.30099e-09
-1.32301e-09
-1.34512e-09
-1.36665e-09
-1.38922e-09
-1.41132e-09
-1.43354e-09
-1.45553e-09
-1.4778e-09
-1.49929e-09
-1.52192e-09
-1.54368e-09
-1.56568e-09
-1.58774e-09
-1.60936e-09
-1.63128e-09
-1.65347e-09
-1.6752e-09
-1.69736e-09
-1.71863e-09
-1.7412e-09
-1.76346e-09
-1.78567e-09
-1.80793e-09
-1.83071e-09
-1.85386e-09
-1.87758e-09
-1.90252e-09
-1.92884e-09
-1.95664e-09
-1.98808e-09
-2.02361e-09
-2.06523e-09
-2.11589e-09
-2.18129e-09
-2.26554e-09
-2.37705e-09
-2.52754e-09
-2.73368e-09
-3.01925e-09
-3.41514e-09
-3.96474e-09
-4.73155e-09
-5.79462e-09
-7.26684e-09
-9.2907e-09
-1.20546e-08
-1.5786e-08
-2.0676e-08
-2.70071e-08
-4.56432e-10
6.25868e-10
-4.70424e-10
-5.85499e-10
-6.12884e-10
-6.44553e-10
-6.78952e-10
-7.14067e-10
-7.48103e-10
-7.81081e-10
-8.11994e-10
-8.41529e-10
-8.68934e-10
-8.94801e-10
-9.19549e-10
-9.43751e-10
-9.6739e-10
-9.90811e-10
-1.0128e-09
-1.03573e-09
-1.05834e-09
-1.08023e-09
-1.10281e-09
-1.12502e-09
-1.14731e-09
-1.16922e-09
-1.19157e-09
-1.21369e-09
-1.23547e-09
-1.25752e-09
-1.27961e-09
-1.30134e-09
-1.32347e-09
-1.34526e-09
-1.36797e-09
-1.38967e-09
-1.41147e-09
-1.43333e-09
-1.45517e-09
-1.47709e-09
-1.49901e-09
-1.52126e-09
-1.54331e-09
-1.56554e-09
-1.5877e-09
-1.61025e-09
-1.63228e-09
-1.65349e-09
-1.67571e-09
-1.69779e-09
-1.72e-09
-1.7421e-09
-1.76398e-09
-1.78609e-09
-1.80879e-09
-1.83106e-09
-1.85422e-09
-1.87787e-09
-1.9022e-09
-1.92787e-09
-1.95561e-09
-1.98654e-09
-2.02196e-09
-2.06389e-09
-2.11505e-09
-2.17891e-09
-2.2623e-09
-2.3735e-09
-2.52441e-09
-2.73075e-09
-3.01601e-09
-3.41325e-09
-3.96613e-09
-4.73733e-09
-5.80888e-09
-7.29274e-09
-9.33442e-09
-1.21214e-08
-1.58861e-08
-2.10011e-08
-2.87328e-08
-3.40547e-08
-2.25538e-10
-1.19153e-09
-6.79101e-10
-5.89319e-10
-6.11259e-10
-6.42469e-10
-6.77303e-10
-7.12748e-10
-7.47095e-10
-7.79978e-10
-8.11346e-10
-8.40714e-10
-8.67613e-10
-8.9365e-10
-9.18679e-10
-9.42862e-10
-9.66443e-10
-9.89536e-10
-1.01238e-09
-1.03511e-09
-1.05746e-09
-1.07993e-09
-1.10221e-09
-1.12435e-09
-1.14642e-09
-1.1686e-09
-1.19076e-09
-1.21261e-09
-1.23486e-09
-1.25687e-09
-1.27887e-09
-1.30084e-09
-1.32304e-09
-1.34489e-09
-1.36712e-09
-1.38897e-09
-1.41073e-09
-1.43271e-09
-1.45456e-09
-1.47663e-09
-1.49881e-09
-1.52089e-09
-1.54285e-09
-1.56492e-09
-1.58685e-09
-1.60922e-09
-1.63114e-09
-1.65289e-09
-1.67503e-09
-1.6971e-09
-1.71888e-09
-1.74088e-09
-1.76302e-09
-1.78514e-09
-1.80735e-09
-1.82986e-09
-1.85277e-09
-1.87609e-09
-1.90053e-09
-1.9261e-09
-1.95368e-09
-1.98428e-09
-2.01917e-09
-2.06017e-09
-2.11035e-09
-2.1741e-09
-2.25704e-09
-2.36734e-09
-2.51741e-09
-2.72323e-09
-3.00817e-09
-3.40546e-09
-3.9593e-09
-4.73241e-09
-5.80823e-09
-7.29967e-09
-9.3522e-09
-1.21536e-08
-1.59349e-08
-2.08869e-08
-2.71574e-08
-3.42786e-08
-4.28391e-08
-3.42719e-11
2.827e-10
-4.78416e-10
-5.81978e-10
-6.10441e-10
-6.41365e-10
-6.76532e-10
-7.12126e-10
-7.46747e-10
-7.79832e-10
-8.1141e-10
-8.40747e-10
-8.68125e-10
-8.93792e-10
-9.18704e-10
-9.42945e-10
-9.66441e-10
-9.89633e-10
-1.0125e-09
-1.03504e-09
-1.05755e-09
-1.07992e-09
-1.1022e-09
-1.12441e-09
-1.14642e-09
-1.16864e-09
-1.19075e-09
-1.21283e-09
-1.23478e-09
-1.25693e-09
-1.27885e-09
-1.30086e-09
-1.32295e-09
-1.34491e-09
-1.36681e-09
-1.38858e-09
-1.41046e-09
-1.4325e-09
-1.45447e-09
-1.47653e-09
-1.49878e-09
-1.52094e-09
-1.54284e-09
-1.56481e-09
-1.58673e-09
-1.60884e-09
-1.63088e-09
-1.65271e-09
-1.67491e-09
-1.69682e-09
-1.71872e-09
-1.74075e-09
-1.76274e-09
-1.78474e-09
-1.80691e-09
-1.82924e-09
-1.85203e-09
-1.87525e-09
-1.89931e-09
-1.92478e-09
-1.95192e-09
-1.98217e-09
-2.01648e-09
-2.05702e-09
-2.10653e-09
-2.16937e-09
-2.2512e-09
-2.36044e-09
-2.50909e-09
-2.71336e-09
-2.99701e-09
-3.39246e-09
-3.94506e-09
-4.71727e-09
-5.79335e-09
-7.2866e-09
-9.3428e-09
-1.21501e-08
-1.59453e-08
-2.11015e-08
-2.85698e-08
-3.44761e-08
-4.29324e-08
-2.63548e-10
-6.84508e-10
-6.01358e-10
-5.85911e-10
-6.09661e-10
-6.40618e-10
-6.75907e-10
-7.11785e-10
-7.46481e-10
-7.79594e-10
-8.11273e-10
-8.40592e-10
-8.67818e-10
-8.93649e-10
-9.18523e-10
-9.42765e-10
-9.66273e-10
-9.89549e-10
-1.01242e-09
-1.03489e-09
-1.05743e-09
-1.07979e-09
-1.10204e-09
-1.12429e-09
-1.14633e-09
-1.16853e-09
-1.19056e-09
-1.21271e-09
-1.23471e-09
-1.25675e-09
-1.27869e-09
-1.30077e-09
-1.32278e-09
-1.34463e-09
-1.36654e-09
-1.38834e-09
-1.41029e-09
-1.43222e-09
-1.45415e-09
-1.47615e-09
-1.49797e-09
-1.51977e-09
-1.54184e-09
-1.56406e-09
-1.58617e-09
-1.6084e-09
-1.63052e-09
-1.65248e-09
-1.67463e-09
-1.69657e-09
-1.71841e-09
-1.74031e-09
-1.76227e-09
-1.78427e-09
-1.80629e-09
-1.82852e-09
-1.85112e-09
-1.87405e-09
-1.89799e-09
-1.92311e-09
-1.95002e-09
-1.97972e-09
-2.01354e-09
-2.05335e-09
-2.10197e-09
-2.16385e-09
-2.24434e-09
-2.35217e-09
-2.49874e-09
-2.70077e-09
-2.98169e-09
-3.37412e-09
-3.92312e-09
-4.69134e-09
-5.76348e-09
-7.25298e-09
-9.30578e-09
-1.21103e-08
-1.59026e-08
-2.09517e-08
-2.76467e-08
-3.44508e-08
-4.30005e-08
-5.15053e-10
-6.84983e-10
-5.98677e-10
-5.85567e-10
-6.09579e-10
-6.40591e-10
-6.7589e-10
-7.11786e-10
-7.46493e-10
-7.79613e-10
-8.11241e-10
-8.4061e-10
-8.67842e-10
-8.93611e-10
-9.18557e-10
-9.42786e-10
-9.6629e-10
-9.89631e-10
-1.01225e-09
-1.03483e-09
-1.05743e-09
-1.07978e-09
-1.10207e-09
-1.12431e-09
-1.1463e-09
-1.16849e-09
-1.19056e-09
-1.2126e-09
-1.23474e-09
-1.25676e-09
-1.27872e-09
-1.30079e-09
-1.32277e-09
-1.34471e-09
-1.36657e-09
-1.38847e-09
-1.41051e-09
-1.43248e-09
-1.45452e-09
-1.47669e-09
-1.49862e-09
-1.52046e-09
-1.54237e-09
-1.56434e-09
-1.5863e-09
-1.60845e-09
-1.63051e-09
-1.65242e-09
-1.67452e-09
-1.69642e-09
-1.71824e-09
-1.74002e-09
-1.76198e-09
-1.78388e-09
-1.80576e-09
-1.8279e-09
-1.85032e-09
-1.8731e-09
-1.89676e-09
-1.92162e-09
-1.94812e-09
-1.97732e-09
-2.01051e-09
-2.04957e-09
-2.09733e-09
-2.1579e-09
-2.23694e-09
-2.34283e-09
-2.48681e-09
-2.68576e-09
-2.96304e-09
-3.35074e-09
-3.89403e-09
-4.65527e-09
-5.71922e-09
-7.19909e-09
-9.2411e-09
-1.20339e-08
-1.58143e-08
-2.08504e-08
-2.75403e-08
-3.43167e-08
-4.29451e-08
-6.62321e-10
2.27626e-10
-4.79661e-10
-5.83712e-10
-6.10441e-10
-6.41484e-10
-6.76467e-10
-7.12121e-10
-7.46726e-10
-7.79847e-10
-8.1132e-10
-8.40773e-10
-8.68168e-10
-8.93947e-10
-9.1881e-10
-9.43164e-10
-9.66484e-10
-9.89713e-10
-1.01285e-09
-1.03504e-09
-1.05748e-09
-1.07986e-09
-1.10221e-09
-1.12453e-09
-1.14644e-09
-1.1689e-09
-1.19068e-09
-1.2131e-09
-1.23482e-09
-1.25684e-09
-1.27905e-09
-1.30094e-09
-1.32326e-09
-1.34493e-09
-1.36678e-09
-1.38854e-09
-1.41047e-09
-1.43229e-09
-1.45412e-09
-1.47611e-09
-1.49826e-09
-1.52033e-09
-1.54229e-09
-1.56424e-09
-1.5863e-09
-1.60852e-09
-1.6307e-09
-1.65255e-09
-1.67474e-09
-1.69639e-09
-1.71837e-09
-1.7399e-09
-1.76173e-09
-1.7836e-09
-1.80547e-09
-1.8276e-09
-1.84969e-09
-1.87229e-09
-1.89567e-09
-1.92018e-09
-1.94651e-09
-1.97487e-09
-2.00743e-09
-2.04562e-09
-2.09225e-09
-2.15143e-09
-2.22899e-09
-2.3322e-09
-2.47322e-09
-2.66878e-09
-2.94081e-09
-3.32203e-09
-3.85756e-09
-4.6088e-09
-5.66024e-09
-7.12467e-09
-9.14837e-09
-1.19207e-08
-1.56823e-08
-2.0832e-08
-2.82974e-08
-3.41338e-08
-4.27616e-08
-6.93594e-10
-1.16183e-09
-6.82546e-10
-5.8879e-10
-6.11245e-10
-6.42446e-10
-6.77245e-10
-7.12811e-10
-7.47014e-10
-7.80035e-10
-8.11298e-10
-8.40614e-10
-8.67697e-10
-8.93453e-10
-9.18688e-10
-9.42715e-10
-9.66356e-10
-9.89691e-10
-1.01202e-09
-1.03495e-09
-1.05745e-09
-1.07979e-09
-1.10204e-09
-1.12424e-09
-1.1464e-09
-1.16824e-09
-1.19051e-09
-1.21233e-09
-1.23466e-09
-1.25677e-09
-1.27849e-09
-1.30081e-09
-1.32246e-09
-1.34491e-09
-1.3669e-09
-1.3889e-09
-1.41088e-09
-1.43271e-09
-1.45463e-09
-1.4766e-09
-1.49857e-09
-1.52063e-09
-1.54271e-09
-1.56454e-09
-1.58677e-09
-1.60876e-09
-1.63076e-09
-1.65245e-09
-1.67411e-09
-1.69617e-09
-1.71755e-09
-1.7394e-09
-1.76138e-09
-1.78283e-09
-1.80468e-09
-1.82627e-09
-1.84856e-09
-1.87096e-09
-1.89405e-09
-1.91842e-09
-1.94366e-09
-1.97214e-09
-2.0038e-09
-2.04114e-09
-2.08659e-09
-2.14415e-09
-2.21952e-09
-2.3205e-09
-2.45803e-09
-2.64869e-09
-2.91535e-09
-3.28888e-09
-3.81452e-09
-4.55281e-09
-5.58783e-09
-7.03164e-09
-9.03007e-09
-1.17733e-08
-1.54944e-08
-2.03739e-08
-2.65936e-08
-3.38245e-08
-4.25003e-08
-5.15663e-10
6.07036e-10
-4.76097e-10
-5.85493e-10
-6.12716e-10
-6.44238e-10
-6.78903e-10
-7.13954e-10
-7.4834e-10
-7.80937e-10
-8.12294e-10
-8.41369e-10
-8.68774e-10
-8.94714e-10
-9.19717e-10
-9.43805e-10
-9.67462e-10
-9.90548e-10
-1.01338e-09
-1.03584e-09
-1.05776e-09
-1.08021e-09
-1.10303e-09
-1.12507e-09
-1.14726e-09
-1.16948e-09
-1.19148e-09
-1.21369e-09
-1.23572e-09
-1.25764e-09
-1.27969e-09
-1.30163e-09
-1.324e-09
-1.34581e-09
-1.36778e-09
-1.38996e-09
-1.41223e-09
-1.43348e-09
-1.45525e-09
-1.47715e-09
-1.49916e-09
-1.52118e-09
-1.54342e-09
-1.5654e-09
-1.58779e-09
-1.60978e-09
-1.63174e-09
-1.65333e-09
-1.67519e-09
-1.69693e-09
-1.71855e-09
-1.74029e-09
-1.76177e-09
-1.78354e-09
-1.80514e-09
-1.82703e-09
-1.84878e-09
-1.87083e-09
-1.89314e-09
-1.91763e-09
-1.94284e-09
-1.97016e-09
-2.00127e-09
-2.03765e-09
-2.08183e-09
-2.13789e-09
-2.21125e-09
-2.30929e-09
-2.44267e-09
-2.62744e-09
-2.8871e-09
-3.25154e-09
-3.76548e-09
-4.48795e-09
-5.50299e-09
-6.92054e-09
-8.88708e-09
-1.15929e-08
-1.52744e-08
-2.03102e-08
-2.80032e-08
-3.34828e-08
-4.21984e-08
-4.35165e-10
-1.1294e-09
-6.62131e-10
-5.92522e-10
-6.13879e-10
-6.45519e-10
-6.79547e-10
-7.13902e-10
-7.47449e-10
-7.8031e-10
-8.11238e-10
-8.40578e-10
-8.67713e-10
-8.93516e-10
-9.1835e-10
-9.4239e-10
-9.65825e-10
-9.89317e-10
-1.01214e-09
-1.03451e-09
-1.05738e-09
-1.07988e-09
-1.10137e-09
-1.12392e-09
-1.14598e-09
-1.16829e-09
-1.19031e-09
-1.21232e-09
-1.23418e-09
-1.25622e-09
-1.27828e-09
-1.30033e-09
-1.32241e-09
-1.34454e-09
-1.36667e-09
-1.38868e-09
-1.41085e-09
-1.43336e-09
-1.45511e-09
-1.4772e-09
-1.49905e-09
-1.52095e-09
-1.54335e-09
-1.5652e-09
-1.5866e-09
-1.60845e-09
-1.63001e-09
-1.65188e-09
-1.67361e-09
-1.69566e-09
-1.71705e-09
-1.73804e-09
-1.76012e-09
-1.78173e-09
-1.8034e-09
-1.82446e-09
-1.84664e-09
-1.86876e-09
-1.89168e-09
-1.91462e-09
-1.9394e-09
-1.96619e-09
-1.99648e-09
-2.03185e-09
-2.07455e-09
-2.12801e-09
-2.19821e-09
-2.29193e-09
-2.42329e-09
-2.60375e-09
-2.85577e-09
-3.20987e-09
-3.7105e-09
-4.41502e-09
-5.40633e-09
-6.79393e-09
-8.72215e-09
-1.13827e-08
-1.50075e-08
-1.97898e-08
-2.60514e-08
-3.294e-08
-7.34486e-10
-6.80366e-10
-5.95623e-10
-6.13781e-10
-6.49161e-10
-6.82615e-10
-7.16739e-10
-7.50013e-10
-7.82199e-10
-8.12854e-10
-8.4153e-10
-8.68948e-10
-8.94938e-10
-9.20358e-10
-9.44195e-10
-9.68292e-10
-9.90894e-10
-1.01354e-09
-1.03622e-09
-1.05926e-09
-1.08139e-09
-1.10399e-09
-1.12595e-09
-1.14765e-09
-1.16967e-09
-1.1918e-09
-1.21391e-09
-1.2361e-09
-1.25834e-09
-1.28006e-09
-1.30234e-09
-1.3242e-09
-1.34617e-09
-1.3681e-09
-1.39025e-09
-1.41238e-09
-1.43485e-09
-1.4572e-09
-1.47884e-09
-1.50082e-09
-1.52305e-09
-1.54476e-09
-1.56663e-09
-1.588e-09
-1.61001e-09
-1.63224e-09
-1.6535e-09
-1.67549e-09
-1.69695e-09
-1.71843e-09
-1.741e-09
-1.76199e-09
-1.7829e-09
-1.80454e-09
-1.82661e-09
-1.84758e-09
-1.86932e-09
-1.89153e-09
-1.91516e-09
-1.93869e-09
-1.96571e-09
-1.99477e-09
-2.0288e-09
-2.07006e-09
-2.12273e-09
-2.19032e-09
-2.282e-09
-2.40772e-09
-2.58214e-09
-2.82575e-09
-3.1688e-09
-3.6549e-09
-4.33879e-09
-5.30371e-09
-6.65698e-09
-8.54101e-09
-1.11527e-08
-1.4717e-08
-1.94227e-08
-2.60097e-08
1.13639e-12
-7.91908e-10
-5.86459e-10
-6.06485e-10
-6.43723e-10
-6.7928e-10
-7.14261e-10
-7.47566e-10
-7.80535e-10
-8.11299e-10
-8.40633e-10
-8.67912e-10
-8.93752e-10
-9.18404e-10
-9.42818e-10
-9.65691e-10
-9.89636e-10
-1.01252e-09
-1.03496e-09
-1.05781e-09
-1.07992e-09
-1.10167e-09
-1.12361e-09
-1.14639e-09
-1.16892e-09
-1.19054e-09
-1.21258e-09
-1.23462e-09
-1.25551e-09
-1.27865e-09
-1.3012e-09
-1.3229e-09
-1.34487e-09
-1.36716e-09
-1.38894e-09
-1.41118e-09
-1.4338e-09
-1.45558e-09
-1.47742e-09
-1.49915e-09
-1.52122e-09
-1.54257e-09
-1.56504e-09
-1.58679e-09
-1.60866e-09
-1.62956e-09
-1.6522e-09
-1.67368e-09
-1.69589e-09
-1.71706e-09
-1.73822e-09
-1.75929e-09
-1.78149e-09
-1.80321e-09
-1.82405e-09
-1.84551e-09
-1.86713e-09
-1.8893e-09
-1.91123e-09
-1.93562e-09
-1.96142e-09
-1.98996e-09
-2.02293e-09
-2.06313e-09
-2.11178e-09
-2.17794e-09
-2.26512e-09
-2.38683e-09
-2.5527e-09
-2.7876e-09
-3.11742e-09
-3.58702e-09
-4.24714e-09
-5.18814e-09
-6.50498e-09
-8.33919e-09
-1.09023e-08
-1.44008e-08
-1.88623e-08
-2.63589e-08
4.57835e-11
-5.97045e-10
-5.86991e-10
-6.14424e-10
-6.45447e-10
-6.80899e-10
-7.15512e-10
-7.48563e-10
-7.80642e-10
-8.10864e-10
-8.39493e-10
-8.67314e-10
-8.93501e-10
-9.18778e-10
-9.42912e-10
-9.65915e-10
-9.89539e-10
-1.01228e-09
-1.03572e-09
-1.05696e-09
-1.07984e-09
-1.10204e-09
-1.12408e-09
-1.14563e-09
-1.16852e-09
-1.19044e-09
-1.21274e-09
-1.23416e-09
-1.2562e-09
-1.27908e-09
-1.30063e-09
-1.32273e-09
-1.34407e-09
-1.36694e-09
-1.38892e-09
-1.41084e-09
-1.43243e-09
-1.45467e-09
-1.47697e-09
-1.49891e-09
-1.52044e-09
-1.54304e-09
-1.56478e-09
-1.58735e-09
-1.60962e-09
-1.631e-09
-1.65379e-09
-1.67548e-09
-1.69792e-09
-1.72049e-09
-1.74258e-09
-1.76506e-09
-1.78765e-09
-1.81034e-09
-1.83367e-09
-1.85815e-09
-1.88196e-09
-1.90693e-09
-1.93415e-09
-1.96422e-09
-1.996e-09
-2.03225e-09
-2.07509e-09
-2.1261e-09
-2.18928e-09
-2.27029e-09
-2.37535e-09
-2.51523e-09
-2.70695e-09
-2.96404e-09
-3.3107e-09
-3.80019e-09
-4.46767e-09
-5.3907e-09
-6.66399e-09
-8.41992e-09
-1.08394e-08
-1.4159e-08
-1.86551e-08
-2.56587e-08
-8.67148e-10
-9.48605e-10
-5.55977e-10
-5.85838e-10
-6.18395e-10
-6.51005e-10
-6.84005e-10
-7.17514e-10
-7.501e-10
-7.81269e-10
-8.11892e-10
-8.40708e-10
-8.67971e-10
-8.95065e-10
-9.19413e-10
-9.43937e-10
-9.67847e-10
-9.90465e-10
-1.0135e-09
-1.03618e-09
-1.05865e-09
-1.08043e-09
-1.10303e-09
-1.12535e-09
-1.14782e-09
-1.16994e-09
-1.19149e-09
-1.2135e-09
-1.23591e-09
-1.25778e-09
-1.28003e-09
-1.3022e-09
-1.32374e-09
-1.34598e-09
-1.36786e-09
-1.3902e-09
-1.4117e-09
-1.43432e-09
-1.45644e-09
-1.47782e-09
-1.50014e-09
-1.52284e-09
-1.54411e-09
-1.56612e-09
-1.58892e-09
-1.61036e-09
-1.63266e-09
-1.65481e-09
-1.67686e-09
-1.69939e-09
-1.72087e-09
-1.74312e-09
-1.76601e-09
-1.78864e-09
-1.81142e-09
-1.83459e-09
-1.85793e-09
-1.88265e-09
-1.90837e-09
-1.93504e-09
-1.96426e-09
-1.99715e-09
-2.03303e-09
-2.07521e-09
-2.12695e-09
-2.19129e-09
-2.27312e-09
-2.38063e-09
-2.52395e-09
-2.71757e-09
-2.9811e-09
-3.34511e-09
-3.83929e-09
-4.52765e-09
-5.47826e-09
-6.79143e-09
-8.60203e-09
-1.10909e-08
-1.45008e-08
-1.91565e-08
-2.51584e-08
-3.08943e-08
-3.93475e-10
3.89289e-10
-5.16943e-10
-5.81414e-10
-6.15138e-10
-6.47596e-10
-6.80695e-10
-7.14133e-10
-7.46991e-10
-7.79427e-10
-8.09978e-10
-8.3964e-10
-8.67798e-10
-8.93453e-10
-9.18771e-10
-9.43157e-10
-9.66275e-10
-9.90069e-10
-1.01255e-09
-1.03488e-09
-1.05787e-09
-1.08019e-09
-1.10251e-09
-1.12446e-09
-1.14623e-09
-1.16834e-09
-1.19048e-09
-1.21298e-09
-1.23461e-09
-1.25668e-09
-1.2788e-09
-1.30037e-09
-1.32286e-09
-1.34486e-09
-1.36687e-09
-1.38874e-09
-1.41157e-09
-1.43326e-09
-1.45497e-09
-1.47731e-09
-1.49929e-09
-1.5216e-09
-1.54343e-09
-1.56548e-09
-1.58683e-09
-1.60967e-09
-1.6315e-09
-1.65383e-09
-1.67577e-09
-1.69809e-09
-1.72029e-09
-1.74211e-09
-1.76486e-09
-1.78728e-09
-1.81058e-09
-1.83305e-09
-1.85628e-09
-1.88087e-09
-1.90633e-09
-1.93355e-09
-1.96246e-09
-1.99406e-09
-2.03065e-09
-2.0733e-09
-2.12529e-09
-2.18903e-09
-2.27239e-09
-2.38062e-09
-2.52685e-09
-2.72538e-09
-2.99491e-09
-3.36168e-09
-3.87458e-09
-4.58182e-09
-5.56218e-09
-6.91538e-09
-8.77979e-09
-1.13375e-08
-1.48321e-08
-1.96099e-08
-2.69567e-08
-3.1761e-08
-3.84231e-08
-4.00923e-10
-5.85763e-10
-5.3874e-10
-5.80011e-10
-6.11969e-10
-6.45041e-10
-6.78958e-10
-7.12231e-10
-7.46912e-10
-7.79092e-10
-8.10164e-10
-8.4009e-10
-8.6686e-10
-8.93817e-10
-9.19335e-10
-9.43151e-10
-9.67367e-10
-9.89656e-10
-1.01328e-09
-1.03546e-09
-1.0578e-09
-1.08007e-09
-1.10179e-09
-1.12518e-09
-1.14751e-09
-1.16875e-09
-1.19067e-09
-1.21223e-09
-1.23566e-09
-1.25758e-09
-1.27925e-09
-1.30066e-09
-1.32304e-09
-1.3458e-09
-1.36824e-09
-1.38974e-09
-1.41023e-09
-1.43364e-09
-1.45554e-09
-1.47689e-09
-1.49882e-09
-1.52189e-09
-1.54338e-09
-1.56553e-09
-1.58846e-09
-1.60887e-09
-1.63138e-09
-1.6546e-09
-1.67631e-09
-1.69829e-09
-1.71942e-09
-1.74244e-09
-1.76498e-09
-1.7881e-09
-1.80919e-09
-1.83308e-09
-1.85665e-09
-1.88025e-09
-1.9063e-09
-1.93186e-09
-1.96159e-09
-1.99328e-09
-2.02906e-09
-2.07206e-09
-2.12305e-09
-2.18922e-09
-2.27198e-09
-2.38147e-09
-2.52892e-09
-2.72653e-09
-3.00019e-09
-3.38025e-09
-3.90386e-09
-4.62878e-09
-5.63556e-09
-7.02458e-09
-8.93827e-09
-1.15574e-08
-1.51262e-08
-1.99614e-08
-2.63799e-08
-3.22696e-08
-3.90704e-08
-4.53147e-10
-3.9333e-10
-4.90835e-10
-5.77001e-10
-6.10472e-10
-6.44843e-10
-6.80529e-10
-7.16094e-10
-7.48955e-10
-7.81534e-10
-8.12345e-10
-8.40879e-10
-8.69406e-10
-8.94429e-10
-9.19729e-10
-9.44612e-10
-9.67551e-10
-9.91613e-10
-1.01356e-09
-1.03581e-09
-1.05839e-09
-1.08106e-09
-1.10428e-09
-1.12539e-09
-1.14739e-09
-1.16916e-09
-1.19237e-09
-1.21469e-09
-1.23526e-09
-1.25778e-09
-1.27978e-09
-1.30269e-09
-1.32451e-09
-1.34614e-09
-1.3674e-09
-1.39025e-09
-1.41375e-09
-1.43391e-09
-1.45628e-09
-1.47873e-09
-1.50127e-09
-1.52249e-09
-1.54498e-09
-1.56592e-09
-1.58843e-09
-1.61167e-09
-1.63321e-09
-1.65406e-09
-1.67622e-09
-1.69864e-09
-1.72191e-09
-1.74354e-09
-1.76504e-09
-1.78714e-09
-1.81127e-09
-1.83276e-09
-1.85632e-09
-1.88123e-09
-1.90566e-09
-1.93311e-09
-1.96038e-09
-1.99226e-09
-2.02886e-09
-2.07067e-09
-2.12352e-09
-2.18732e-09
-2.27082e-09
-2.38221e-09
-2.53013e-09
-2.73301e-09
-3.01183e-09
-3.39714e-09
-3.93214e-09
-4.67226e-09
-5.70145e-09
-7.12229e-09
-9.08042e-09
-1.17539e-08
-1.53886e-08
-2.03443e-08
-2.69441e-08
-3.25894e-08
-4.18509e-08
-5.08782e-10
-8.83958e-10
-5.61056e-10
-5.87091e-10
-6.1552e-10
-6.50425e-10
-6.8585e-10
-7.20288e-10
-7.53245e-10
-7.84703e-10
-8.1529e-10
-8.44661e-10
-8.70918e-10
-8.96754e-10
-9.21613e-10
-9.45526e-10
-9.69137e-10
-9.92135e-10
-1.01515e-09
-1.0385e-09
-1.05991e-09
-1.08298e-09
-1.10491e-09
-1.12706e-09
-1.14916e-09
-1.17142e-09
-1.19286e-09
-1.21526e-09
-1.23782e-09
-1.25929e-09
-1.28099e-09
-1.303e-09
-1.32617e-09
-1.34757e-09
-1.37044e-09
-1.39138e-09
-1.41434e-09
-1.43707e-09
-1.45823e-09
-1.48141e-09
-1.503e-09
-1.52539e-09
-1.54739e-09
-1.56909e-09
-1.59043e-09
-1.6123e-09
-1.63363e-09
-1.65667e-09
-1.67848e-09
-1.70004e-09
-1.72232e-09
-1.74395e-09
-1.76579e-09
-1.78975e-09
-1.81104e-09
-1.83458e-09
-1.85696e-09
-1.88082e-09
-1.90617e-09
-1.93196e-09
-1.96131e-09
-1.99231e-09
-2.02847e-09
-2.06962e-09
-2.12147e-09
-2.18554e-09
-2.27055e-09
-2.38069e-09
-2.5314e-09
-2.7363e-09
-3.01811e-09
-3.40976e-09
-3.9523e-09
-4.70629e-09
-5.75213e-09
-7.19848e-09
-9.18925e-09
-1.19098e-08
-1.55929e-08
-2.05405e-08
-2.68229e-08
-3.33284e-08
-4.23074e-08
-5.30206e-10
-9.5545e-10
-5.98199e-10
-5.89884e-10
-6.17162e-10
-6.50972e-10
-6.8615e-10
-7.20041e-10
-7.52813e-10
-7.83795e-10
-8.14515e-10
-8.43533e-10
-8.70398e-10
-8.95728e-10
-9.20536e-10
-9.4465e-10
-9.67835e-10
-9.91211e-10
-1.01394e-09
-1.03701e-09
-1.05883e-09
-1.08184e-09
-1.10301e-09
-1.12546e-09
-1.14777e-09
-1.16943e-09
-1.1923e-09
-1.21395e-09
-1.23572e-09
-1.25805e-09
-1.28024e-09
-1.30275e-09
-1.32436e-09
-1.347e-09
-1.36825e-09
-1.3911e-09
-1.41308e-09
-1.43559e-09
-1.45728e-09
-1.47988e-09
-1.50178e-09
-1.524e-09
-1.54598e-09
-1.56773e-09
-1.58927e-09
-1.61116e-09
-1.63287e-09
-1.65519e-09
-1.67667e-09
-1.69826e-09
-1.72081e-09
-1.74299e-09
-1.76476e-09
-1.78723e-09
-1.80978e-09
-1.83199e-09
-1.85541e-09
-1.87925e-09
-1.90346e-09
-1.93056e-09
-1.95795e-09
-1.98949e-09
-2.02539e-09
-2.06652e-09
-2.11772e-09
-2.18233e-09
-2.26582e-09
-2.37772e-09
-2.52768e-09
-2.73339e-09
-3.01772e-09
-3.41208e-09
-3.95997e-09
-4.7228e-09
-5.78109e-09
-7.24593e-09
-9.26153e-09
-1.20154e-08
-1.57334e-08
-2.0684e-08
-2.69768e-08
-3.38385e-08
-4.26688e-08
-5.28235e-10
-6.78337e-10
-5.20986e-10
-5.86037e-10
-6.1692e-10
-6.51315e-10
-6.86155e-10
-7.2015e-10
-7.52852e-10
-7.84213e-10
-8.14942e-10
-8.44068e-10
-8.71789e-10
-8.97311e-10
-9.21958e-10
-9.46091e-10
-9.69416e-10
-9.92633e-10
-1.01528e-09
-1.03726e-09
-1.06004e-09
-1.0821e-09
-1.10451e-09
-1.12696e-09
-1.14916e-09
-1.17113e-09
-1.19331e-09
-1.21542e-09
-1.23753e-09
-1.25936e-09
-1.28138e-09
-1.30315e-09
-1.32544e-09
-1.34726e-09
-1.36989e-09
-1.39132e-09
-1.41336e-09
-1.4353e-09
-1.45727e-09
-1.47941e-09
-1.50138e-09
-1.52361e-09
-1.54568e-09
-1.56752e-09
-1.58937e-09
-1.61149e-09
-1.63404e-09
-1.6553e-09
-1.6779e-09
-1.69959e-09
-1.72098e-09
-1.7438e-09
-1.76556e-09
-1.78834e-09
-1.81046e-09
-1.83303e-09
-1.85583e-09
-1.87953e-09
-1.90387e-09
-1.92958e-09
-1.95771e-09
-1.98868e-09
-2.02334e-09
-2.06502e-09
-2.1162e-09
-2.17958e-09
-2.2633e-09
-2.37444e-09
-2.52435e-09
-2.72994e-09
-3.01495e-09
-3.41079e-09
-3.96171e-09
-4.72945e-09
-5.79635e-09
-7.27354e-09
-9.3069e-09
-1.20843e-08
-1.58369e-08
-2.08859e-08
-2.73978e-08
-3.57347e-08
-4.31026e-08
-5.35237e-10
-9.5777e-10
-6.34976e-10
-5.88698e-10
-6.16396e-10
-6.50813e-10
-6.85512e-10
-7.19529e-10
-7.52206e-10
-7.83663e-10
-8.14538e-10
-8.43797e-10
-8.71164e-10
-8.96791e-10
-9.21478e-10
-9.45016e-10
-9.68545e-10
-9.91831e-10
-1.01449e-09
-1.03727e-09
-1.0593e-09
-1.08201e-09
-1.10398e-09
-1.12615e-09
-1.14853e-09
-1.17009e-09
-1.19271e-09
-1.21419e-09
-1.23676e-09
-1.25846e-09
-1.28081e-09
-1.30284e-09
-1.32495e-09
-1.34703e-09
-1.36891e-09
-1.39067e-09
-1.41272e-09
-1.43462e-09
-1.45672e-09
-1.47876e-09
-1.50074e-09
-1.52292e-09
-1.54499e-09
-1.56678e-09
-1.58861e-09
-1.61088e-09
-1.6331e-09
-1.65497e-09
-1.677e-09
-1.69895e-09
-1.72074e-09
-1.74289e-09
-1.76453e-09
-1.78723e-09
-1.80911e-09
-1.83179e-09
-1.85447e-09
-1.8778e-09
-1.90216e-09
-1.92796e-09
-1.95557e-09
-1.98609e-09
-2.02069e-09
-2.06147e-09
-2.11138e-09
-2.17498e-09
-2.25799e-09
-2.36818e-09
-2.51738e-09
-2.7229e-09
-3.00751e-09
-3.40351e-09
-3.95546e-09
-4.72547e-09
-5.79669e-09
-7.28115e-09
-9.3253e-09
-1.21167e-08
-1.58855e-08
-2.08577e-08
-2.71495e-08
-3.58097e-08
-4.34965e-08
-4.76951e-10
-4.37517e-10
-5.19389e-10
-5.83944e-10
-6.16653e-10
-6.50608e-10
-6.85186e-10
-7.19124e-10
-7.51901e-10
-7.83522e-10
-8.14486e-10
-8.43916e-10
-8.71395e-10
-8.97149e-10
-9.21618e-10
-9.45739e-10
-9.69299e-10
-9.91917e-10
-1.01503e-09
-1.03739e-09
-1.05943e-09
-1.08207e-09
-1.10412e-09
-1.12661e-09
-1.14856e-09
-1.17067e-09
-1.19279e-09
-1.21485e-09
-1.23681e-09
-1.25899e-09
-1.28093e-09
-1.30283e-09
-1.32498e-09
-1.34698e-09
-1.36864e-09
-1.3905e-09
-1.41244e-09
-1.43428e-09
-1.45646e-09
-1.47853e-09
-1.50052e-09
-1.52262e-09
-1.54468e-09
-1.56633e-09
-1.58826e-09
-1.61053e-09
-1.63291e-09
-1.65488e-09
-1.67691e-09
-1.69877e-09
-1.72066e-09
-1.74282e-09
-1.7649e-09
-1.7868e-09
-1.80888e-09
-1.83116e-09
-1.85395e-09
-1.87744e-09
-1.90116e-09
-1.92681e-09
-1.95388e-09
-1.98407e-09
-2.01807e-09
-2.0586e-09
-2.10806e-09
-2.17048e-09
-2.25262e-09
-2.36132e-09
-2.50925e-09
-2.71337e-09
-2.9964e-09
-3.39078e-09
-3.94152e-09
-4.71075e-09
-5.78215e-09
-7.26817e-09
-9.31579e-09
-1.2113e-08
-1.58941e-08
-2.09822e-08
-2.76922e-08
-3.59823e-08
-4.37365e-08
-5.15749e-10
-7.01338e-10
-5.88885e-10
-5.86164e-10
-6.16399e-10
-6.50399e-10
-6.84995e-10
-7.18972e-10
-7.51751e-10
-7.83375e-10
-8.14376e-10
-8.43832e-10
-8.71384e-10
-8.97078e-10
-9.21513e-10
-9.45468e-10
-9.69098e-10
-9.91893e-10
-1.01468e-09
-1.03738e-09
-1.05938e-09
-1.08201e-09
-1.10399e-09
-1.12646e-09
-1.14848e-09
-1.17057e-09
-1.19257e-09
-1.21459e-09
-1.23677e-09
-1.25881e-09
-1.28078e-09
-1.30276e-09
-1.32476e-09
-1.34672e-09
-1.36842e-09
-1.39032e-09
-1.41232e-09
-1.43416e-09
-1.45638e-09
-1.47846e-09
-1.50042e-09
-1.52244e-09
-1.54445e-09
-1.56609e-09
-1.58801e-09
-1.61026e-09
-1.63252e-09
-1.65453e-09
-1.67662e-09
-1.69862e-09
-1.72037e-09
-1.74237e-09
-1.76431e-09
-1.78635e-09
-1.80833e-09
-1.83041e-09
-1.85314e-09
-1.87615e-09
-1.90003e-09
-1.92506e-09
-1.952e-09
-1.98159e-09
-2.01506e-09
-2.05507e-09
-2.10336e-09
-2.16507e-09
-2.24576e-09
-2.35305e-09
-2.49901e-09
-2.70095e-09
-2.98115e-09
-3.37244e-09
-3.91967e-09
-4.68496e-09
-5.75237e-09
-7.23438e-09
-9.27813e-09
-1.20725e-08
-1.58506e-08
-2.08762e-08
-2.73903e-08
-3.59153e-08
-4.38417e-08
-5.21484e-10
-7.11754e-10
-5.89884e-10
-5.86184e-10
-6.16347e-10
-6.50393e-10
-6.85003e-10
-7.18971e-10
-7.51767e-10
-7.8338e-10
-8.14343e-10
-8.4384e-10
-8.71344e-10
-8.9712e-10
-9.21521e-10
-9.4544e-10
-9.69014e-10
-9.91908e-10
-1.01465e-09
-1.03738e-09
-1.05938e-09
-1.082e-09
-1.104e-09
-1.12642e-09
-1.14845e-09
-1.17058e-09
-1.19248e-09
-1.21466e-09
-1.2367e-09
-1.25886e-09
-1.28078e-09
-1.30279e-09
-1.32469e-09
-1.34674e-09
-1.36837e-09
-1.39025e-09
-1.41234e-09
-1.43409e-09
-1.45635e-09
-1.47842e-09
-1.50042e-09
-1.52235e-09
-1.54438e-09
-1.56605e-09
-1.58799e-09
-1.6102e-09
-1.6324e-09
-1.65442e-09
-1.6765e-09
-1.69843e-09
-1.72025e-09
-1.74208e-09
-1.764e-09
-1.78588e-09
-1.80776e-09
-1.82972e-09
-1.8523e-09
-1.87513e-09
-1.89874e-09
-1.92355e-09
-1.94995e-09
-1.97919e-09
-2.01199e-09
-2.05116e-09
-2.09867e-09
-2.15909e-09
-2.238e-09
-2.34349e-09
-2.48697e-09
-2.68587e-09
-2.96226e-09
-3.34875e-09
-3.89016e-09
-4.64841e-09
-5.70747e-09
-7.17974e-09
-9.2125e-09
-1.1995e-08
-1.57612e-08
-2.07764e-08
-2.72929e-08
-3.5807e-08
-4.37768e-08
-4.74397e-10
-4.71274e-10
-5.20999e-10
-5.84442e-10
-6.16471e-10
-6.50675e-10
-6.85151e-10
-7.19128e-10
-7.51889e-10
-7.83518e-10
-8.14469e-10
-8.43898e-10
-8.7136e-10
-8.97161e-10
-9.21612e-10
-9.45524e-10
-9.68842e-10
-9.91888e-10
-1.01481e-09
-1.03732e-09
-1.05945e-09
-1.08199e-09
-1.10415e-09
-1.12634e-09
-1.14843e-09
-1.17063e-09
-1.19265e-09
-1.21473e-09
-1.23678e-09
-1.25893e-09
-1.28108e-09
-1.30279e-09
-1.3249e-09
-1.34687e-09
-1.36852e-09
-1.39037e-09
-1.41247e-09
-1.4341e-09
-1.45627e-09
-1.47831e-09
-1.50035e-09
-1.52235e-09
-1.54431e-09
-1.56612e-09
-1.58809e-09
-1.61038e-09
-1.6325e-09
-1.65449e-09
-1.6766e-09
-1.69832e-09
-1.72025e-09
-1.74185e-09
-1.76387e-09
-1.7856e-09
-1.80752e-09
-1.82921e-09
-1.85146e-09
-1.87416e-09
-1.89762e-09
-1.92216e-09
-1.94803e-09
-1.97672e-09
-2.00898e-09
-2.04701e-09
-2.09345e-09
-2.15259e-09
-2.2298e-09
-2.33263e-09
-2.47313e-09
-2.66813e-09
-2.93959e-09
-3.31964e-09
-3.85303e-09
-4.60107e-09
-5.64744e-09
-7.10427e-09
-9.11878e-09
-1.18805e-08
-1.56262e-08
-2.0692e-08
-2.739e-08
-3.56304e-08
-4.35172e-08
-5.54835e-10
-9.59783e-10
-6.3294e-10
-5.88471e-10
-6.16561e-10
-6.50812e-10
-6.8543e-10
-7.19511e-10
-7.52202e-10
-7.83695e-10
-8.14466e-10
-8.43772e-10
-8.71127e-10
-8.96951e-10
-9.21265e-10
-9.45376e-10
-9.68681e-10
-9.91748e-10
-1.01433e-09
-1.03719e-09
-1.05939e-09
-1.08186e-09
-1.10413e-09
-1.1262e-09
-1.14842e-09
-1.17034e-09
-1.19257e-09
-1.2144e-09
-1.23661e-09
-1.25848e-09
-1.28055e-09
-1.30267e-09
-1.32466e-09
-1.34679e-09
-1.36877e-09
-1.39055e-09
-1.41286e-09
-1.43434e-09
-1.45645e-09
-1.47849e-09