/*--------------------------------*- C++ -*----------------------------------*\
| =========                 |                                                 |
| \\      /  F ield         | OpenFOAM: The Open Source CFD Toolbox           |
|  \\    /   O peration     | Version:  v1906                                 |
|   \\  /    A nd           | Web:      www.OpenFOAM.com                      |
|    \\/     M anipulation  |                                                 |
\*---------------------------------------------------------------------------*/
FoamFile
{
    version     2.0;
    format      ascii;
    class       volScalarField;
    location    "0.12";
    object      p;
}
// * * * * * * * * * * * * * * * * * * * * * * * * * * * * * * * * * * * * * //

dimensions      [0 2 -2 0 0 0 0];


internalField   nonuniform List<scalar> 
243374
(
-6.56272e-16
-1.68376e-09
-1.05337e-09
-1.0418e-09
-1.07987e-09
-1.12143e-09
-1.15284e-09
-1.20189e-09
-1.24175e-09
-1.28131e-09
-1.31116e-09
-1.3513e-09
-1.38788e-09
-1.41833e-09
-1.44773e-09
-1.47055e-09
-1.49323e-09
-1.51766e-09
-1.53698e-09
-1.56471e-09
-1.58743e-09
-1.60737e-09
-1.6341e-09
-1.65464e-09
-1.67315e-09
-1.70033e-09
-1.71465e-09
-1.74117e-09
-1.76406e-09
-1.78671e-09
-1.80532e-09
-1.82943e-09
-1.852e-09
-1.87206e-09
-1.89561e-09
-1.91746e-09
-1.93663e-09
-1.9642e-09
-1.98185e-09
-2.00229e-09
-2.02519e-09
-2.05051e-09
-2.06858e-09
-2.0945e-09
-2.11495e-09
-2.14075e-09
-2.15883e-09
-2.18048e-09
-2.20612e-09
-2.22731e-09
-2.25141e-09
-2.27114e-09
-2.29152e-09
-2.31393e-09
-2.33312e-09
-2.35937e-09
-2.38318e-09
-2.40438e-09
-2.42264e-09
-2.44637e-09
-2.4684e-09
-2.49159e-09
-2.51793e-09
-2.5396e-09
-2.56836e-09
-2.59568e-09
-2.63017e-09
-2.65637e-09
-2.69041e-09
-2.73478e-09
-2.77614e-09
-2.82748e-09
-2.89066e-09
-2.96937e-09
-3.0623e-09
-3.17782e-09
-3.32905e-09
-3.47681e-09
-3.04214e-09
-5.04247e-09
-2.28761e-09
-1.3528e-09
-1.06492e-09
-1.0564e-09
-1.08629e-09
-1.12636e-09
-1.16929e-09
-1.20872e-09
-1.24916e-09
-1.28466e-09
-1.32384e-09
-1.36347e-09
-1.39779e-09
-1.42787e-09
-1.45567e-09
-1.48038e-09
-1.50544e-09
-1.52812e-09
-1.5467e-09
-1.57329e-09
-1.5984e-09
-1.61502e-09
-1.64035e-09
-1.66217e-09
-1.68299e-09
-1.70818e-09
-1.72971e-09
-1.75061e-09
-1.77179e-09
-1.79485e-09
-1.81897e-09
-1.83697e-09
-1.85827e-09
-1.88183e-09
-1.90406e-09
-1.92761e-09
-1.94543e-09
-1.97075e-09
-1.98888e-09
-2.01252e-09
-2.03231e-09
-2.05652e-09
-2.08185e-09
-2.1004e-09
-2.12795e-09
-2.14891e-09
-2.17036e-09
-2.18959e-09
-2.21352e-09
-2.23648e-09
-2.25929e-09
-2.27914e-09
-2.29776e-09
-2.32532e-09
-2.34344e-09
-2.36774e-09
-2.39071e-09
-2.41224e-09
-2.43641e-09
-2.45465e-09
-2.47926e-09
-2.50281e-09
-2.52593e-09
-2.54839e-09
-2.57678e-09
-2.60565e-09
-2.63902e-09
-2.66863e-09
-2.70409e-09
-2.74046e-09
-2.78172e-09
-2.83105e-09
-2.89446e-09
-2.97157e-09
-3.06879e-09
-3.18252e-09
-3.33841e-09
-3.49281e-09
-3.41346e-09
-2.79752e-09
-2.93336e-09
-1.20704e-09
-1.04743e-09
-1.05595e-09
-1.08146e-09
-1.11743e-09
-1.15479e-09
-1.19806e-09
-1.2376e-09
-1.27906e-09
-1.31807e-09
-1.35416e-09
-1.39106e-09
-1.42121e-09
-1.44795e-09
-1.47338e-09
-1.4955e-09
-1.51927e-09
-1.54245e-09
-1.56535e-09
-1.59004e-09
-1.61147e-09
-1.63326e-09
-1.65508e-09
-1.67789e-09
-1.69997e-09
-1.72165e-09
-1.74429e-09
-1.76459e-09
-1.78778e-09
-1.80859e-09
-1.83404e-09
-1.85484e-09
-1.87622e-09
-1.89763e-09
-1.91997e-09
-1.94328e-09
-1.96459e-09
-1.98824e-09
-2.0091e-09
-2.03263e-09
-2.05352e-09
-2.07502e-09
-2.09857e-09
-2.12004e-09
-2.14146e-09
-2.16267e-09
-2.18509e-09
-2.20744e-09
-2.22798e-09
-2.25098e-09
-2.27298e-09
-2.29616e-09
-2.31631e-09
-2.33897e-09
-2.36103e-09
-2.38233e-09
-2.40548e-09
-2.42753e-09
-2.45167e-09
-2.47195e-09
-2.49742e-09
-2.51907e-09
-2.54235e-09
-2.57083e-09
-2.60233e-09
-2.63248e-09
-2.66571e-09
-2.70159e-09
-2.73542e-09
-2.77933e-09
-2.82978e-09
-2.89387e-09
-2.97292e-09
-3.0724e-09
-3.18809e-09
-3.34406e-09
-3.51832e-09
-3.57438e-09
-2.13995e-09
-9.49855e-10
5.08384e-09
-7.88075e-10
-1.0316e-09
-1.0517e-09
-1.07874e-09
-1.11364e-09
-1.15139e-09
-1.19383e-09
-1.23556e-09
-1.27688e-09
-1.31828e-09
-1.35828e-09
-1.39229e-09
-1.42235e-09
-1.4491e-09
-1.47408e-09
-1.4978e-09
-1.51898e-09
-1.54203e-09
-1.56529e-09
-1.58915e-09
-1.6103e-09
-1.63272e-09
-1.65556e-09
-1.67571e-09
-1.70029e-09
-1.72229e-09
-1.74317e-09
-1.76461e-09
-1.78782e-09
-1.80915e-09
-1.83196e-09
-1.85401e-09
-1.87541e-09
-1.89543e-09
-1.91841e-09
-1.94106e-09
-1.9625e-09
-1.98648e-09
-2.00827e-09
-2.03126e-09
-2.05197e-09
-2.07274e-09
-2.09619e-09
-2.11816e-09
-2.14171e-09
-2.16208e-09
-2.18337e-09
-2.20617e-09
-2.22833e-09
-2.25102e-09
-2.27262e-09
-2.29509e-09
-2.31743e-09
-2.33802e-09
-2.36105e-09
-2.3828e-09
-2.40475e-09
-2.42787e-09
-2.45021e-09
-2.47233e-09
-2.49558e-09
-2.51942e-09
-2.54419e-09
-2.57144e-09
-2.60126e-09
-2.63177e-09
-2.66524e-09
-2.69936e-09
-2.73532e-09
-2.77702e-09
-2.82885e-09
-2.89519e-09
-2.97697e-09
-3.07666e-09
-3.19771e-09
-3.35034e-09
-3.54097e-09
-3.9704e-09
-1.03043e-08
-4.86334e-09
-4.0842e-10
-4.12041e-09
-1.24999e-09
-1.03644e-09
-1.05166e-09
-1.07673e-09
-1.10897e-09
-1.1468e-09
-1.18823e-09
-1.23099e-09
-1.27345e-09
-1.31699e-09
-1.35499e-09
-1.38934e-09
-1.42062e-09
-1.44709e-09
-1.47164e-09
-1.49432e-09
-1.51714e-09
-1.54015e-09
-1.56243e-09
-1.58617e-09
-1.60809e-09
-1.63043e-09
-1.65244e-09
-1.67409e-09
-1.69733e-09
-1.72002e-09
-1.74113e-09
-1.76222e-09
-1.78504e-09
-1.80626e-09
-1.8297e-09
-1.85026e-09
-1.87307e-09
-1.89338e-09
-1.91601e-09
-1.93969e-09
-1.96126e-09
-1.98515e-09
-2.00796e-09
-2.03045e-09
-2.05071e-09
-2.07118e-09
-2.09327e-09
-2.11535e-09
-2.13765e-09
-2.15831e-09
-2.18139e-09
-2.20398e-09
-2.22581e-09
-2.24757e-09
-2.26988e-09
-2.2926e-09
-2.31462e-09
-2.33554e-09
-2.358e-09
-2.38002e-09
-2.40276e-09
-2.42435e-09
-2.44835e-09
-2.47056e-09
-2.4933e-09
-2.51685e-09
-2.54198e-09
-2.56915e-09
-2.59919e-09
-2.63039e-09
-2.66391e-09
-2.69773e-09
-2.73311e-09
-2.77601e-09
-2.82839e-09
-2.89567e-09
-2.97956e-09
-3.08133e-09
-3.20551e-09
-3.36061e-09
-3.55389e-09
-3.68022e-09
-1.11728e-09
-4.67025e-09
-4.95289e-09
9.15779e-10
2.2366e-09
-7.92811e-10
-1.02614e-09
-1.05226e-09
-1.07587e-09
-1.10578e-09
-1.14296e-09
-1.18514e-09
-1.22834e-09
-1.27267e-09
-1.31609e-09
-1.3545e-09
-1.3889e-09
-1.41965e-09
-1.44628e-09
-1.47024e-09
-1.49361e-09
-1.5168e-09
-1.53878e-09
-1.56148e-09
-1.5854e-09
-1.60655e-09
-1.62957e-09
-1.65151e-09
-1.67334e-09
-1.69598e-09
-1.71899e-09
-1.73989e-09
-1.76129e-09
-1.78355e-09
-1.80529e-09
-1.82777e-09
-1.84951e-09
-1.8714e-09
-1.89164e-09
-1.91493e-09
-1.93873e-09
-1.961e-09
-1.98419e-09
-2.00785e-09
-2.02983e-09
-2.04977e-09
-2.07049e-09
-2.09227e-09
-2.11406e-09
-2.13555e-09
-2.1564e-09
-2.18e-09
-2.20231e-09
-2.22471e-09
-2.24655e-09
-2.26871e-09
-2.29131e-09
-2.31318e-09
-2.33448e-09
-2.35654e-09
-2.3786e-09
-2.40089e-09
-2.42379e-09
-2.44701e-09
-2.4696e-09
-2.49188e-09
-2.51571e-09
-2.54136e-09
-2.56848e-09
-2.59758e-09
-2.62975e-09
-2.66298e-09
-2.6964e-09
-2.733e-09
-2.77517e-09
-2.82848e-09
-2.89694e-09
-2.98201e-09
-3.08538e-09
-3.2102e-09
-3.36669e-09
-3.56963e-09
-4.01154e-09
-7.44457e-09
-4.88783e-09
-4.8959e-09
-4.11058e-10
-1.83927e-09
-1.04757e-09
-1.02864e-09
-1.05117e-09
-1.07451e-09
-1.10443e-09
-1.14159e-09
-1.18332e-09
-1.22682e-09
-1.27161e-09
-1.3151e-09
-1.35388e-09
-1.38832e-09
-1.41904e-09
-1.44583e-09
-1.4694e-09
-1.49309e-09
-1.51677e-09
-1.53751e-09
-1.56096e-09
-1.58412e-09
-1.60596e-09
-1.62899e-09
-1.65067e-09
-1.67295e-09
-1.69498e-09
-1.7184e-09
-1.73906e-09
-1.76061e-09
-1.78256e-09
-1.80473e-09
-1.82698e-09
-1.84843e-09
-1.87037e-09
-1.89136e-09
-1.9149e-09
-1.9379e-09
-1.96017e-09
-1.98291e-09
-2.00631e-09
-2.02711e-09
-2.0475e-09
-2.06899e-09
-2.09119e-09
-2.11277e-09
-2.13469e-09
-2.1562e-09
-2.17949e-09
-2.20152e-09
-2.22399e-09
-2.24612e-09
-2.268e-09
-2.29059e-09
-2.3127e-09
-2.33369e-09
-2.35575e-09
-2.37744e-09
-2.39991e-09
-2.42303e-09
-2.44599e-09
-2.46902e-09
-2.49104e-09
-2.51523e-09
-2.54073e-09
-2.56799e-09
-2.59676e-09
-2.62967e-09
-2.66235e-09
-2.69584e-09
-2.73266e-09
-2.77541e-09
-2.82867e-09
-2.89777e-09
-2.98372e-09
-3.08776e-09
-3.21318e-09
-3.37021e-09
-3.57166e-09
-3.79827e-09
-3.17607e-09
-4.71516e-09
-4.96832e-09
-1.15452e-09
-2.00767e-09
-1.04241e-09
-1.02866e-09
-1.05136e-09
-1.07481e-09
-1.10448e-09
-1.14166e-09
-1.18337e-09
-1.22688e-09
-1.27138e-09
-1.31532e-09
-1.35437e-09
-1.38803e-09
-1.41947e-09
-1.44628e-09
-1.46985e-09
-1.49345e-09
-1.51681e-09
-1.53761e-09
-1.56113e-09
-1.58399e-09
-1.60634e-09
-1.62914e-09
-1.65025e-09
-1.67323e-09
-1.69494e-09
-1.71825e-09
-1.7393e-09
-1.76064e-09
-1.78272e-09
-1.8049e-09
-1.82715e-09
-1.84871e-09
-1.87015e-09
-1.89203e-09
-1.91532e-09
-1.93815e-09
-1.95965e-09
-1.98287e-09
-2.00652e-09
-2.02793e-09
-2.04814e-09
-2.06917e-09
-2.0914e-09
-2.11279e-09
-2.13494e-09
-2.15663e-09
-2.1798e-09
-2.2017e-09
-2.22437e-09
-2.24622e-09
-2.26812e-09
-2.29059e-09
-2.31297e-09
-2.33398e-09
-2.35578e-09
-2.37797e-09
-2.40016e-09
-2.42329e-09
-2.44605e-09
-2.4694e-09
-2.49128e-09
-2.51529e-09
-2.54094e-09
-2.56831e-09
-2.59747e-09
-2.62999e-09
-2.66243e-09
-2.69605e-09
-2.73294e-09
-2.77583e-09
-2.82918e-09
-2.89835e-09
-2.98451e-09
-3.08842e-09
-3.21379e-09
-3.37097e-09
-3.57233e-09
-3.79423e-09
-3.34077e-09
-4.5623e-09
-4.95667e-09
-2.28532e-09
2.27109e-09
-8.2381e-10
-1.02665e-09
-1.05221e-09
-1.07605e-09
-1.10601e-09
-1.14316e-09
-1.1846e-09
-1.22828e-09
-1.27206e-09
-1.31636e-09
-1.35555e-09
-1.38876e-09
-1.42088e-09
-1.44774e-09
-1.47113e-09
-1.49393e-09
-1.51774e-09
-1.53918e-09
-1.56189e-09
-1.58469e-09
-1.60742e-09
-1.6297e-09
-1.65122e-09
-1.67434e-09
-1.69566e-09
-1.71891e-09
-1.7398e-09
-1.76106e-09
-1.78352e-09
-1.80601e-09
-1.82818e-09
-1.8495e-09
-1.87128e-09
-1.89255e-09
-1.91573e-09
-1.93795e-09
-1.95983e-09
-1.98239e-09
-2.00583e-09
-2.02729e-09
-2.04819e-09
-2.06891e-09
-2.09142e-09
-2.11333e-09
-2.1359e-09
-2.15794e-09
-2.18078e-09
-2.20261e-09
-2.22505e-09
-2.24738e-09
-2.26871e-09
-2.29082e-09
-2.31419e-09
-2.33497e-09
-2.35661e-09
-2.37902e-09
-2.40081e-09
-2.42416e-09
-2.44652e-09
-2.47028e-09
-2.49234e-09
-2.51577e-09
-2.54112e-09
-2.56923e-09
-2.59884e-09
-2.62997e-09
-2.66318e-09
-2.69664e-09
-2.73385e-09
-2.77601e-09
-2.83013e-09
-2.89889e-09
-2.98432e-09
-3.08734e-09
-3.21249e-09
-3.36921e-09
-3.57232e-09
-4.05325e-09
-7.43388e-09
-4.66012e-09
-4.93698e-09
-2.1378e-09
-4.05727e-09
-1.14974e-09
-1.03377e-09
-1.05207e-09
-1.07711e-09
-1.10936e-09
-1.14703e-09
-1.18746e-09
-1.23103e-09
-1.2733e-09
-1.3177e-09
-1.35604e-09
-1.38933e-09
-1.4218e-09
-1.44818e-09
-1.47259e-09
-1.49508e-09
-1.51762e-09
-1.54015e-09
-1.56282e-09
-1.58478e-09
-1.6085e-09
-1.62975e-09
-1.65234e-09
-1.67457e-09
-1.6968e-09
-1.7188e-09
-1.74074e-09
-1.76256e-09
-1.78389e-09
-1.80667e-09
-1.82848e-09
-1.85121e-09
-1.87383e-09
-1.89411e-09
-1.91707e-09
-1.93835e-09
-1.96099e-09
-1.98296e-09
-2.00588e-09
-2.02733e-09
-2.0492e-09
-2.06974e-09
-2.09314e-09
-2.11526e-09
-2.13834e-09
-2.15938e-09
-2.18113e-09
-2.20375e-09
-2.2253e-09
-2.24875e-09
-2.27028e-09
-2.29146e-09
-2.31478e-09
-2.33504e-09
-2.35728e-09
-2.37934e-09
-2.40041e-09
-2.4253e-09
-2.44642e-09
-2.47097e-09
-2.49305e-09
-2.51679e-09
-2.54213e-09
-2.56995e-09
-2.59964e-09
-2.63063e-09
-2.66442e-09
-2.69658e-09
-2.73533e-09
-2.77755e-09
-2.83097e-09
-2.8989e-09
-2.98312e-09
-3.08591e-09
-3.20984e-09
-3.36511e-09
-3.55559e-09
-3.58122e-09
-1.0575e-09
-4.57144e-09
-5.0087e-09
-9.71712e-10
5.17441e-09
-8.40843e-10
-1.03265e-09
-1.0519e-09
-1.07931e-09
-1.11418e-09
-1.1515e-09
-1.19283e-09
-1.23543e-09
-1.27774e-09
-1.32043e-09
-1.35993e-09
-1.39374e-09
-1.4236e-09
-1.44986e-09
-1.47428e-09
-1.49716e-09
-1.52383e-09
-1.5424e-09
-1.56508e-09
-1.58809e-09
-1.61002e-09
-1.6312e-09
-1.65469e-09
-1.67923e-09
-1.7007e-09
-1.7234e-09
-1.74334e-09
-1.76406e-09
-1.78638e-09
-1.80849e-09
-1.83349e-09
-1.85348e-09
-1.87781e-09
-1.89684e-09
-1.92004e-09
-1.94011e-09
-1.96259e-09
-1.98398e-09
-2.0064e-09
-2.02783e-09
-2.05068e-09
-2.0727e-09
-2.09569e-09
-2.11861e-09
-2.14047e-09
-2.16154e-09
-2.18342e-09
-2.20777e-09
-2.22812e-09
-2.24959e-09
-2.27144e-09
-2.29418e-09
-2.31691e-09
-2.33799e-09
-2.36009e-09
-2.38254e-09
-2.40275e-09
-2.42667e-09
-2.45178e-09
-2.4727e-09
-2.49571e-09
-2.51965e-09
-2.54463e-09
-2.571e-09
-2.60287e-09
-2.63225e-09
-2.6674e-09
-2.69901e-09
-2.73683e-09
-2.77972e-09
-2.83247e-09
-2.89946e-09
-2.98227e-09
-3.08167e-09
-3.20407e-09
-3.3569e-09
-3.5476e-09
-4.02701e-09
-1.02227e-08
-4.80255e-09
-4.95381e-09
-9.21862e-10
-3.00241e-09
-1.22653e-09
-1.04962e-09
-1.05609e-09
-1.08277e-09
-1.11817e-09
-1.15565e-09
-1.19433e-09
-1.2376e-09
-1.27881e-09
-1.31738e-09
-1.3555e-09
-1.38943e-09
-1.42124e-09
-1.44666e-09
-1.47334e-09
-1.49637e-09
-1.51566e-09
-1.5398e-09
-1.56604e-09
-1.58813e-09
-1.61056e-09
-1.63202e-09
-1.65394e-09
-1.67557e-09
-1.69753e-09
-1.71872e-09
-1.74271e-09
-1.76451e-09
-1.78646e-09
-1.80968e-09
-1.82945e-09
-1.85263e-09
-1.87464e-09
-1.89636e-09
-1.91644e-09
-1.94124e-09
-1.9635e-09
-1.98514e-09
-2.0066e-09
-2.02798e-09
-2.0513e-09
-2.074e-09
-2.09485e-09
-2.11812e-09
-2.1395e-09
-2.16118e-09
-2.18341e-09
-2.20517e-09
-2.22702e-09
-2.24997e-09
-2.2724e-09
-2.29202e-09
-2.31447e-09
-2.33736e-09
-2.3586e-09
-2.38045e-09
-2.40263e-09
-2.42692e-09
-2.44611e-09
-2.47358e-09
-2.49297e-09
-2.51968e-09
-2.54391e-09
-2.57011e-09
-2.60085e-09
-2.63204e-09
-2.66401e-09
-2.69939e-09
-2.73836e-09
-2.78038e-09
-2.83409e-09
-2.89913e-09
-2.9799e-09
-3.07803e-09
-3.19571e-09
-3.35213e-09
-3.52772e-09
-3.59809e-09
-2.20197e-09
-4.58691e-09
-2.32287e-09
-1.36745e-09
-1.06559e-09
-1.05625e-09
-1.0899e-09
-1.12697e-09
-1.16758e-09
-1.20699e-09
-1.24823e-09
-1.28926e-09
-1.32676e-09
-1.36411e-09
-1.3983e-09
-1.42942e-09
-1.45386e-09
-1.48021e-09
-1.50372e-09
-1.52774e-09
-1.54857e-09
-1.57414e-09
-1.59723e-09
-1.6161e-09
-1.63967e-09
-1.66155e-09
-1.68406e-09
-1.70558e-09
-1.72914e-09
-1.7507e-09
-1.77005e-09
-1.79355e-09
-1.81438e-09
-1.83968e-09
-1.86018e-09
-1.88238e-09
-1.90383e-09
-1.92666e-09
-1.94885e-09
-1.97151e-09
-1.99034e-09
-2.01189e-09
-2.03548e-09
-2.05954e-09
-2.08e-09
-2.1021e-09
-2.12567e-09
-2.14983e-09
-2.16914e-09
-2.19084e-09
-2.21331e-09
-2.23369e-09
-2.25773e-09
-2.27766e-09
-2.29943e-09
-2.32388e-09
-2.3455e-09
-2.36665e-09
-2.38887e-09
-2.41261e-09
-2.43345e-09
-2.45514e-09
-2.47864e-09
-2.50222e-09
-2.52699e-09
-2.55155e-09
-2.57949e-09
-2.60573e-09
-2.63602e-09
-2.67274e-09
-2.70718e-09
-2.74303e-09
-2.78563e-09
-2.83716e-09
-2.89946e-09
-2.97769e-09
-3.07749e-09
-3.19208e-09
-3.34665e-09
-3.50332e-09
-3.43494e-09
-2.83162e-09
-2.46776e-11
-1.69108e-09
-1.05455e-09
-1.04331e-09
-1.08025e-09
-1.11978e-09
-1.15624e-09
-1.19352e-09
-1.24087e-09
-1.28215e-09
-1.32012e-09
-1.35545e-09
-1.38423e-09
-1.41659e-09
-1.44476e-09
-1.46698e-09
-1.49467e-09
-1.51577e-09
-1.54096e-09
-1.56701e-09
-1.58634e-09
-1.60445e-09
-1.62663e-09
-1.65427e-09
-1.67896e-09
-1.69652e-09
-1.71589e-09
-1.74213e-09
-1.75756e-09
-1.78539e-09
-1.81064e-09
-1.82786e-09
-1.85237e-09
-1.87669e-09
-1.89497e-09
-1.91576e-09
-1.94415e-09
-1.96564e-09
-1.98586e-09
-2.00627e-09
-2.02685e-09
-2.04806e-09
-2.07322e-09
-2.0956e-09
-2.1169e-09
-2.13143e-09
-2.16204e-09
-2.18055e-09
-2.2078e-09
-2.22635e-09
-2.24543e-09
-2.26647e-09
-2.2932e-09
-2.31758e-09
-2.33296e-09
-2.35865e-09
-2.38074e-09
-2.40399e-09
-2.4231e-09
-2.44538e-09
-2.47108e-09
-2.49467e-09
-2.51903e-09
-2.54642e-09
-2.56377e-09
-2.59827e-09
-2.62539e-09
-2.66488e-09
-2.69552e-09
-2.735e-09
-2.77815e-09
-2.83493e-09
-2.89449e-09
-2.97453e-09
-3.07194e-09
-3.18778e-09
-3.33852e-09
-3.48822e-09
-3.05924e-09
-5.07001e-09
-6.15035e-12
-1.12752e-09
-1.06568e-09
-1.08157e-09
-1.10095e-09
-1.13342e-09
-1.16595e-09
-1.20652e-09
-1.24396e-09
-1.28092e-09
-1.31215e-09
-1.35006e-09
-1.38316e-09
-1.41403e-09
-1.44311e-09
-1.46831e-09
-1.49025e-09
-1.51738e-09
-1.54569e-09
-1.56291e-09
-1.58276e-09
-1.60891e-09
-1.6309e-09
-1.6482e-09
-1.67715e-09
-1.69804e-09
-1.72095e-09
-1.73646e-09
-1.76217e-09
-1.789e-09
-1.80492e-09
-1.83014e-09
-1.848e-09
-1.87109e-09
-1.89775e-09
-1.91769e-09
-1.93813e-09
-1.95697e-09
-1.98367e-09
-2.00641e-09
-2.02299e-09
-2.04831e-09
-2.06988e-09
-2.09224e-09
-2.1178e-09
-2.13536e-09
-2.16075e-09
-2.1773e-09
-2.20472e-09
-2.2259e-09
-2.24389e-09
-2.27188e-09
-2.29245e-09
-2.31401e-09
-2.33224e-09
-2.36206e-09
-2.38026e-09
-2.39536e-09
-2.42141e-09
-2.44867e-09
-2.46895e-09
-2.49197e-09
-2.5129e-09
-2.54067e-09
-2.56123e-09
-2.59148e-09
-2.61857e-09
-2.64518e-09
-2.68435e-09
-2.71465e-09
-2.75223e-09
-2.80193e-09
-2.85325e-09
-2.91939e-09
-2.9942e-09
-3.08707e-09
-3.21151e-09
-3.35379e-09
-3.46939e-09
-4.86134e-09
-2.10487e-09
-2.85209e-09
-1.05814e-09
-1.06042e-09
-1.08631e-09
-1.11457e-09
-1.14472e-09
-1.17759e-09
-1.21237e-09
-1.24671e-09
-1.28253e-09
-1.31992e-09
-1.3545e-09
-1.38694e-09
-1.42245e-09
-1.45201e-09
-1.47535e-09
-1.5022e-09
-1.52278e-09
-1.54666e-09
-1.5693e-09
-1.59265e-09
-1.61418e-09
-1.63631e-09
-1.65984e-09
-1.68131e-09
-1.70244e-09
-1.72547e-09
-1.7486e-09
-1.76876e-09
-1.7921e-09
-1.81219e-09
-1.8347e-09
-1.85485e-09
-1.8815e-09
-1.90181e-09
-1.92101e-09
-1.94471e-09
-1.96588e-09
-1.98837e-09
-2.00948e-09
-2.03455e-09
-2.05515e-09
-2.07426e-09
-2.10092e-09
-2.12043e-09
-2.14119e-09
-2.16651e-09
-2.18781e-09
-2.21438e-09
-2.22975e-09
-2.25432e-09
-2.27786e-09
-2.29708e-09
-2.32098e-09
-2.34669e-09
-2.36259e-09
-2.38681e-09
-2.40842e-09
-2.42807e-09
-2.45258e-09
-2.47946e-09
-2.49982e-09
-2.51895e-09
-2.54532e-09
-2.5737e-09
-2.59599e-09
-2.62514e-09
-2.65759e-09
-2.68379e-09
-2.71654e-09
-2.75664e-09
-2.80107e-09
-2.85479e-09
-2.92155e-09
-2.99811e-09
-3.09858e-09
-3.22677e-09
-3.38936e-09
-3.5827e-09
-2.06664e-09
-3.92637e-09
-9.77896e-10
6.30165e-10
-9.58836e-10
-1.05e-09
-1.0785e-09
-1.10741e-09
-1.13774e-09
-1.16813e-09
-1.20226e-09
-1.23719e-09
-1.27399e-09
-1.3132e-09
-1.35132e-09
-1.38398e-09
-1.41655e-09
-1.44507e-09
-1.47187e-09
-1.49493e-09
-1.52062e-09
-1.54329e-09
-1.56676e-09
-1.58579e-09
-1.60864e-09
-1.63456e-09
-1.65629e-09
-1.67768e-09
-1.6968e-09
-1.71919e-09
-1.74473e-09
-1.76745e-09
-1.78881e-09
-1.80354e-09
-1.82874e-09
-1.85498e-09
-1.87668e-09
-1.89923e-09
-1.91597e-09
-1.94017e-09
-1.96147e-09
-1.98204e-09
-2.00591e-09
-2.02923e-09
-2.0478e-09
-2.07158e-09
-2.09523e-09
-2.11789e-09
-2.13625e-09
-2.16509e-09
-2.18526e-09
-2.20718e-09
-2.22943e-09
-2.246e-09
-2.27423e-09
-2.29743e-09
-2.31721e-09
-2.33709e-09
-2.361e-09
-2.38002e-09
-2.40567e-09
-2.42437e-09
-2.44964e-09
-2.47106e-09
-2.49299e-09
-2.51871e-09
-2.5402e-09
-2.56698e-09
-2.59642e-09
-2.61946e-09
-2.65323e-09
-2.68209e-09
-2.71598e-09
-2.75464e-09
-2.80442e-09
-2.86066e-09
-2.93269e-09
-3.01558e-09
-3.12145e-09
-3.2565e-09
-3.42853e-09
-3.71788e-09
-5.58358e-09
-4.26758e-09
-4.38825e-09
-9.63151e-10
-5.67009e-10
-9.44144e-10
-1.04304e-09
-1.06897e-09
-1.09914e-09
-1.13069e-09
-1.15965e-09
-1.19834e-09
-1.23536e-09
-1.27306e-09
-1.31384e-09
-1.34496e-09
-1.38515e-09
-1.41819e-09
-1.44514e-09
-1.47342e-09
-1.49315e-09
-1.52175e-09
-1.54521e-09
-1.56678e-09
-1.58618e-09
-1.60754e-09
-1.63585e-09
-1.65823e-09
-1.6788e-09
-1.69788e-09
-1.71808e-09
-1.74446e-09
-1.76722e-09
-1.786e-09
-1.80454e-09
-1.82849e-09
-1.85556e-09
-1.87677e-09
-1.89859e-09
-1.91578e-09
-1.94187e-09
-1.96155e-09
-1.97985e-09
-1.99896e-09
-2.02963e-09
-2.047e-09
-2.07132e-09
-2.09763e-09
-2.1149e-09
-2.13716e-09
-2.16264e-09
-2.18584e-09
-2.20882e-09
-2.22449e-09
-2.24886e-09
-2.27317e-09
-2.29586e-09
-2.3127e-09
-2.33904e-09
-2.36219e-09
-2.37983e-09
-2.407e-09
-2.42208e-09
-2.44738e-09
-2.47199e-09
-2.49234e-09
-2.52015e-09
-2.53962e-09
-2.5691e-09
-2.59279e-09
-2.62299e-09
-2.65381e-09
-2.68363e-09
-2.71953e-09
-2.76121e-09
-2.81169e-09
-2.87075e-09
-2.94516e-09
-3.03184e-09
-3.14347e-09
-3.28489e-09
-3.46208e-09
-3.7673e-09
-4.43245e-09
-4.26482e-09
-4.69623e-09
-9.65984e-10
-3.64594e-10
-8.98414e-10
-1.03593e-09
-1.05892e-09
-1.09468e-09
-1.13261e-09
-1.17583e-09
-1.21291e-09
-1.25213e-09
-1.29094e-09
-1.32452e-09
-1.36548e-09
-1.39401e-09
-1.4245e-09
-1.45645e-09
-1.47876e-09
-1.50772e-09
-1.52673e-09
-1.54945e-09
-1.57214e-09
-1.59566e-09
-1.62393e-09
-1.64155e-09
-1.66403e-09
-1.6839e-09
-1.71033e-09
-1.73473e-09
-1.74863e-09
-1.77252e-09
-1.7954e-09
-1.82129e-09
-1.84117e-09
-1.8614e-09
-1.8808e-09
-1.90485e-09
-1.9331e-09
-1.94647e-09
-1.97076e-09
-1.99484e-09
-2.01733e-09
-2.03783e-09
-2.06112e-09
-2.07795e-09
-2.10336e-09
-2.13264e-09
-2.15159e-09
-2.16844e-09
-2.19036e-09
-2.21447e-09
-2.24288e-09
-2.26057e-09
-2.2795e-09
-2.30159e-09
-2.32984e-09
-2.34391e-09
-2.36734e-09
-2.39394e-09
-2.41269e-09
-2.43775e-09
-2.45444e-09
-2.47984e-09
-2.50467e-09
-2.52437e-09
-2.55673e-09
-2.57597e-09
-2.60329e-09
-2.6401e-09
-2.66683e-09
-2.70534e-09
-2.74266e-09
-2.78428e-09
-2.83782e-09
-2.9002e-09
-2.97494e-09
-3.0675e-09
-3.18083e-09
-3.32303e-09
-3.49519e-09
-3.84556e-09
-4.6728e-09
-4.38793e-09
-4.89576e-09
-1.07565e-09
-2.36822e-09
-1.09391e-09
-1.04652e-09
-1.05923e-09
-1.10607e-09
-1.14671e-09
-1.19194e-09
-1.23061e-09
-1.26935e-09
-1.30535e-09
-1.34082e-09
-1.37409e-09
-1.40524e-09
-1.43528e-09
-1.46442e-09
-1.48796e-09
-1.51387e-09
-1.53547e-09
-1.56458e-09
-1.58081e-09
-1.61176e-09
-1.62829e-09
-1.64718e-09
-1.67147e-09
-1.69651e-09
-1.71653e-09
-1.74185e-09
-1.76211e-09
-1.7804e-09
-1.8024e-09
-1.82779e-09
-1.8516e-09
-1.86971e-09
-1.89557e-09
-1.91276e-09
-1.93938e-09
-1.96073e-09
-1.97932e-09
-2.00944e-09
-2.02949e-09
-2.0523e-09
-2.07507e-09
-2.09319e-09
-2.11325e-09
-2.13911e-09
-2.15704e-09
-2.18446e-09
-2.20339e-09
-2.22111e-09
-2.24891e-09
-2.26751e-09
-2.28602e-09
-2.31588e-09
-2.33461e-09
-2.35642e-09
-2.37473e-09
-2.39943e-09
-2.41906e-09
-2.44434e-09
-2.46665e-09
-2.48997e-09
-2.51827e-09
-2.53396e-09
-2.56287e-09
-2.5845e-09
-2.61744e-09
-2.64881e-09
-2.68648e-09
-2.72266e-09
-2.75775e-09
-2.80227e-09
-2.85466e-09
-2.91545e-09
-2.99031e-09
-3.08208e-09
-3.19904e-09
-3.34647e-09
-3.51481e-09
-3.69296e-09
-2.72588e-09
-4.28151e-09
-4.96799e-09
-1.08103e-09
-2.15988e-09
-1.10332e-09
-1.04272e-09
-1.06289e-09
-1.10709e-09
-1.14726e-09
-1.18961e-09
-1.23013e-09
-1.26783e-09
-1.30388e-09
-1.3366e-09
-1.37014e-09
-1.40219e-09
-1.43211e-09
-1.46013e-09
-1.48392e-09
-1.50734e-09
-1.53105e-09
-1.55736e-09
-1.57716e-09
-1.60275e-09
-1.62139e-09
-1.64462e-09
-1.66729e-09
-1.68967e-09
-1.71097e-09
-1.7334e-09
-1.75607e-09
-1.77734e-09
-1.79757e-09
-1.82267e-09
-1.84799e-09
-1.86788e-09
-1.89004e-09
-1.91102e-09
-1.93381e-09
-1.9588e-09
-1.97804e-09
-2.00587e-09
-2.02722e-09
-2.05009e-09
-2.07189e-09
-2.09199e-09
-2.10972e-09
-2.13209e-09
-2.15132e-09
-2.17752e-09
-2.19815e-09
-2.21836e-09
-2.23992e-09
-2.26174e-09
-2.28136e-09
-2.30961e-09
-2.32788e-09
-2.35077e-09
-2.37084e-09
-2.39256e-09
-2.41494e-09
-2.44069e-09
-2.46386e-09
-2.48507e-09
-2.50974e-09
-2.52935e-09
-2.55474e-09
-2.58103e-09
-2.61642e-09
-2.64729e-09
-2.68125e-09
-2.71905e-09
-2.75675e-09
-2.80231e-09
-2.85522e-09
-2.91713e-09
-2.99275e-09
-3.08632e-09
-3.20653e-09
-3.35971e-09
-3.53268e-09
-3.70007e-09
-2.94956e-09
-4.22457e-09
-5.01302e-09
-1.04807e-09
-1.23013e-09
-1.00651e-09
-1.03134e-09
-1.06698e-09
-1.10646e-09
-1.14648e-09
-1.18801e-09
-1.22897e-09
-1.26666e-09
-1.3021e-09
-1.33662e-09
-1.37251e-09
-1.40506e-09
-1.43623e-09
-1.46514e-09
-1.48843e-09
-1.51361e-09
-1.53512e-09
-1.55666e-09
-1.58e-09
-1.60267e-09
-1.62348e-09
-1.64594e-09
-1.67044e-09
-1.69126e-09
-1.71659e-09
-1.73652e-09
-1.75791e-09
-1.77925e-09
-1.80267e-09
-1.824e-09
-1.84728e-09
-1.8686e-09
-1.89084e-09
-1.91087e-09
-1.93326e-09
-1.95532e-09
-1.97797e-09
-2.00208e-09
-2.02496e-09
-2.04758e-09
-2.06899e-09
-2.08927e-09
-2.10865e-09
-2.13207e-09
-2.15704e-09
-2.17683e-09
-2.19894e-09
-2.22062e-09
-2.23983e-09
-2.26747e-09
-2.28722e-09
-2.31001e-09
-2.33238e-09
-2.35224e-09
-2.37487e-09
-2.3981e-09
-2.41815e-09
-2.4418e-09
-2.46444e-09
-2.48836e-09
-2.50942e-09
-2.53412e-09
-2.55984e-09
-2.58702e-09
-2.6174e-09
-2.65209e-09
-2.68409e-09
-2.71988e-09
-2.75842e-09
-2.80273e-09
-2.85493e-09
-2.91754e-09
-2.99447e-09
-3.08812e-09
-3.2087e-09
-3.36306e-09
-3.55339e-09
-3.81425e-09
-3.93481e-09
-4.56162e-09
-5.02386e-09
-1.03928e-09
-2.74009e-09
-1.10914e-09
-1.03746e-09
-1.06359e-09
-1.10357e-09
-1.14433e-09
-1.18557e-09
-1.22576e-09
-1.26372e-09
-1.2996e-09
-1.33425e-09
-1.37049e-09
-1.40475e-09
-1.43605e-09
-1.46223e-09
-1.48705e-09
-1.5103e-09
-1.53309e-09
-1.55572e-09
-1.57686e-09
-1.60079e-09
-1.62247e-09
-1.64472e-09
-1.66839e-09
-1.68956e-09
-1.71267e-09
-1.73327e-09
-1.7566e-09
-1.77733e-09
-1.7995e-09
-1.82066e-09
-1.84467e-09
-1.86516e-09
-1.88753e-09
-1.90818e-09
-1.93095e-09
-1.95262e-09
-1.97707e-09
-1.99985e-09
-2.02297e-09
-2.04512e-09
-2.06684e-09
-2.08677e-09
-2.10608e-09
-2.12896e-09
-2.15317e-09
-2.17377e-09
-2.19685e-09
-2.21874e-09
-2.23894e-09
-2.26353e-09
-2.28421e-09
-2.3081e-09
-2.32869e-09
-2.35127e-09
-2.37233e-09
-2.39437e-09
-2.41607e-09
-2.43909e-09
-2.46258e-09
-2.48554e-09
-2.50808e-09
-2.53137e-09
-2.5567e-09
-2.58475e-09
-2.61745e-09
-2.65073e-09
-2.68376e-09
-2.71843e-09
-2.75706e-09
-2.80206e-09
-2.8549e-09
-2.91795e-09
-2.99491e-09
-3.08976e-09
-3.2107e-09
-3.3649e-09
-3.55974e-09
-3.74902e-09
-2.42068e-09
-4.53927e-09
-5.0229e-09
-9.29596e-10
-7.60781e-11
-9.46112e-10
-1.02893e-09
-1.06401e-09
-1.10189e-09
-1.14258e-09
-1.18349e-09
-1.2238e-09
-1.26191e-09
-1.29775e-09
-1.33362e-09
-1.37015e-09
-1.40476e-09
-1.43572e-09
-1.4625e-09
-1.48811e-09
-1.50922e-09
-1.53338e-09
-1.55614e-09
-1.5765e-09
-1.60075e-09
-1.62163e-09
-1.64457e-09
-1.66702e-09
-1.68936e-09
-1.71144e-09
-1.73371e-09
-1.75487e-09
-1.77723e-09
-1.79848e-09
-1.82033e-09
-1.8427e-09
-1.86377e-09
-1.88439e-09
-1.90734e-09
-1.93028e-09
-1.95189e-09
-1.97628e-09
-1.99913e-09
-2.02174e-09
-2.04395e-09
-2.06593e-09
-2.08557e-09
-2.10549e-09
-2.12732e-09
-2.15085e-09
-2.17244e-09
-2.19493e-09
-2.21685e-09
-2.23867e-09
-2.26216e-09
-2.28399e-09
-2.3064e-09
-2.32751e-09
-2.34977e-09
-2.37164e-09
-2.39431e-09
-2.41512e-09
-2.43897e-09
-2.46148e-09
-2.48467e-09
-2.50819e-09
-2.53109e-09
-2.55728e-09
-2.58416e-09
-2.61727e-09
-2.64967e-09
-2.68331e-09
-2.71835e-09
-2.75652e-09
-2.80157e-09
-2.85482e-09
-2.9184e-09
-2.99541e-09
-3.09121e-09
-3.21283e-09
-3.36775e-09
-3.56901e-09
-3.90533e-09
-5.27994e-09
-4.70088e-09
-5.03669e-09
-9.79477e-10
-1.48402e-09
-1.01609e-09
-1.0309e-09
-1.06385e-09
-1.10117e-09
-1.14174e-09
-1.18279e-09
-1.22284e-09
-1.26106e-09
-1.29684e-09
-1.33292e-09
-1.36996e-09
-1.40438e-09
-1.43501e-09
-1.4624e-09
-1.48827e-09
-1.50898e-09
-1.5323e-09
-1.55583e-09
-1.57653e-09
-1.60014e-09
-1.62124e-09
-1.6444e-09
-1.66637e-09
-1.68892e-09
-1.71012e-09
-1.73279e-09
-1.75435e-09
-1.77652e-09
-1.79765e-09
-1.81912e-09
-1.84176e-09
-1.86289e-09
-1.88378e-09
-1.90701e-09
-1.93033e-09
-1.9518e-09
-1.97594e-09
-1.99888e-09
-2.02154e-09
-2.04382e-09
-2.06535e-09
-2.08472e-09
-2.10522e-09
-2.12717e-09
-2.14954e-09
-2.17095e-09
-2.19415e-09
-2.21631e-09
-2.23792e-09
-2.26084e-09
-2.28333e-09
-2.30571e-09
-2.32734e-09
-2.34916e-09
-2.37133e-09
-2.39395e-09
-2.41531e-09
-2.43818e-09
-2.46133e-09
-2.48418e-09
-2.50746e-09
-2.53144e-09
-2.55709e-09
-2.58406e-09
-2.61674e-09
-2.64934e-09
-2.68329e-09
-2.71824e-09
-2.75622e-09
-2.80149e-09
-2.85472e-09
-2.91851e-09
-2.99608e-09
-3.09249e-09
-3.21439e-09
-3.36992e-09
-3.57096e-09
-3.82184e-09
-3.5347e-09
-4.62663e-09
-5.04661e-09
-9.74459e-10
-1.64593e-09
-1.02098e-09
-1.03135e-09
-1.06396e-09
-1.10126e-09
-1.14163e-09
-1.18271e-09
-1.22283e-09
-1.26103e-09
-1.29685e-09
-1.33301e-09
-1.36996e-09
-1.40451e-09
-1.4352e-09
-1.46234e-09
-1.4875e-09
-1.50895e-09
-1.53207e-09
-1.55579e-09
-1.57687e-09
-1.60007e-09
-1.62131e-09
-1.64439e-09
-1.66675e-09
-1.68881e-09
-1.70991e-09
-1.7327e-09
-1.7544e-09
-1.77669e-09
-1.79797e-09
-1.81946e-09
-1.84162e-09
-1.86334e-09
-1.88414e-09
-1.9061e-09
-1.93066e-09
-1.95168e-09
-1.97619e-09
-1.99859e-09
-2.02156e-09
-2.04263e-09
-2.06521e-09
-2.08505e-09
-2.1051e-09
-2.12741e-09
-2.14911e-09
-2.17069e-09
-2.1943e-09
-2.2163e-09
-2.23855e-09
-2.26056e-09
-2.28346e-09
-2.30557e-09
-2.32755e-09
-2.349e-09
-2.3711e-09
-2.39302e-09
-2.4155e-09
-2.43829e-09
-2.46127e-09
-2.48439e-09
-2.50773e-09
-2.5317e-09
-2.55728e-09
-2.58434e-09
-2.61633e-09
-2.64941e-09
-2.68364e-09
-2.71852e-09
-2.7567e-09
-2.80175e-09
-2.8552e-09
-2.91905e-09
-2.99674e-09
-3.09333e-09
-3.2151e-09
-3.37074e-09
-3.57203e-09
-3.82829e-09
-3.68975e-09
-4.62652e-09
-5.04865e-09
-8.97037e-10
9.62233e-11
-9.3386e-10
-1.03036e-09
-1.06435e-09
-1.10207e-09
-1.14276e-09
-1.18346e-09
-1.22349e-09
-1.26173e-09
-1.29809e-09
-1.33373e-09
-1.37045e-09
-1.40495e-09
-1.43576e-09
-1.46285e-09
-1.48664e-09
-1.50889e-09
-1.53255e-09
-1.55568e-09
-1.57746e-09
-1.60016e-09
-1.62196e-09
-1.64427e-09
-1.66655e-09
-1.68908e-09
-1.71075e-09
-1.73294e-09
-1.75444e-09
-1.77686e-09
-1.79838e-09
-1.81988e-09
-1.84284e-09
-1.86399e-09
-1.88454e-09
-1.90555e-09
-1.93042e-09
-1.95148e-09
-1.97518e-09
-1.99768e-09
-2.02109e-09
-2.04268e-09
-2.06476e-09
-2.08507e-09
-2.10525e-09
-2.12759e-09
-2.14959e-09
-2.17153e-09
-2.19556e-09
-2.21732e-09
-2.23946e-09
-2.26156e-09
-2.28369e-09
-2.30639e-09
-2.32856e-09
-2.34999e-09
-2.37118e-09
-2.39309e-09
-2.41625e-09
-2.43924e-09
-2.46163e-09
-2.48579e-09
-2.5085e-09
-2.53209e-09
-2.55752e-09
-2.58462e-09
-2.61719e-09
-2.6491e-09
-2.68422e-09
-2.71852e-09
-2.75749e-09
-2.80281e-09
-2.85631e-09
-2.92001e-09
-2.99725e-09
-3.09335e-09
-3.2147e-09
-3.37017e-09
-3.57203e-09
-3.90064e-09
-5.14895e-09
-4.67259e-09
-5.03895e-09
-1.05089e-09
-2.73267e-09
-1.08798e-09
-1.0349e-09
-1.06494e-09
-1.10331e-09
-1.14458e-09
-1.18552e-09
-1.22551e-09
-1.26367e-09
-1.29937e-09
-1.33492e-09
-1.37084e-09
-1.40518e-09
-1.4356e-09
-1.46259e-09
-1.48659e-09
-1.50873e-09
-1.53224e-09
-1.55595e-09
-1.57763e-09
-1.59976e-09
-1.62247e-09
-1.64472e-09
-1.66704e-09
-1.68907e-09
-1.71073e-09
-1.73307e-09
-1.75456e-09
-1.77684e-09
-1.79821e-09
-1.82003e-09
-1.84324e-09
-1.86516e-09
-1.88678e-09
-1.90654e-09
-1.93131e-09
-1.95162e-09
-1.97443e-09
-1.99735e-09
-2.0213e-09