/*--------------------------------*- C++ -*----------------------------------*\
| =========                 |                                                 |
| \\      /  F ield         | OpenFOAM: The Open Source CFD Toolbox           |
|  \\    /   O peration     | Version:  v1906                                 |
|   \\  /    A nd           | Web:      www.OpenFOAM.com                      |
|    \\/     M anipulation  |                                                 |
\*---------------------------------------------------------------------------*/
FoamFile
{
    version     2.0;
    format      ascii;
    class       volScalarField;
    location    "0.33";
    object      p;
}
// * * * * * * * * * * * * * * * * * * * * * * * * * * * * * * * * * * * * * //

dimensions      [0 2 -2 0 0 0 0];


internalField   nonuniform List<scalar> 
243374
(
-6.8307e-16
-1.02552e-09
-7.12054e-10
-7.25495e-10
-7.64839e-10
-8.02414e-10
-8.38328e-10
-8.7549e-10
-9.10545e-10
-9.43714e-10
-9.72893e-10
-1.00368e-09
-1.03126e-09
-1.05744e-09
-1.08272e-09
-1.10606e-09
-1.12967e-09
-1.15248e-09
-1.17384e-09
-1.19781e-09
-1.22043e-09
-1.2428e-09
-1.26525e-09
-1.28708e-09
-1.30805e-09
-1.33187e-09
-1.35225e-09
-1.37499e-09
-1.39747e-09
-1.41944e-09
-1.44151e-09
-1.46344e-09
-1.48563e-09
-1.5067e-09
-1.52987e-09
-1.55221e-09
-1.57281e-09
-1.59619e-09
-1.61693e-09
-1.63949e-09
-1.66088e-09
-1.68401e-09
-1.70436e-09
-1.72783e-09
-1.74921e-09
-1.7721e-09
-1.79269e-09
-1.81412e-09
-1.83704e-09
-1.85886e-09
-1.88092e-09
-1.90165e-09
-1.92243e-09
-1.94457e-09
-1.9644e-09
-1.98674e-09
-2.00827e-09
-2.02876e-09
-2.04927e-09
-2.06969e-09
-2.09004e-09
-2.11134e-09
-2.13403e-09
-2.15691e-09
-2.18237e-09
-2.21073e-09
-2.24567e-09
-2.28579e-09
-2.3397e-09
-2.41148e-09
-2.50665e-09
-2.63815e-09
-2.82162e-09
-3.0834e-09
-3.44606e-09
-3.95598e-09
-4.67317e-09
-5.64831e-09
-6.65707e-09
-9.61207e-09
-1.08335e-09
-8.56404e-10
-7.22484e-10
-7.35275e-10
-7.69629e-10
-8.06249e-10
-8.43007e-10
-8.78842e-10
-9.1281e-10
-9.45785e-10
-9.77791e-10
-1.00643e-09
-1.03361e-09
-1.05922e-09
-1.08426e-09
-1.10824e-09
-1.13181e-09
-1.1549e-09
-1.17764e-09
-1.20003e-09
-1.22309e-09
-1.24497e-09
-1.26705e-09
-1.28901e-09
-1.31181e-09
-1.33369e-09
-1.35561e-09
-1.37765e-09
-1.39952e-09
-1.42158e-09
-1.44351e-09
-1.46619e-09
-1.48778e-09
-1.5103e-09
-1.53192e-09
-1.55498e-09
-1.57634e-09
-1.59846e-09
-1.61976e-09
-1.64231e-09
-1.66367e-09
-1.68613e-09
-1.70895e-09
-1.72985e-09
-1.75269e-09
-1.77392e-09
-1.7959e-09
-1.81779e-09
-1.83923e-09
-1.86135e-09
-1.88276e-09
-1.90399e-09
-1.92509e-09
-1.9468e-09
-1.96836e-09
-1.98917e-09
-2.01006e-09
-2.03122e-09
-2.0523e-09
-2.07284e-09
-2.09406e-09
-2.11595e-09
-2.13744e-09
-2.16091e-09
-2.18672e-09
-2.21639e-09
-2.25173e-09
-2.29503e-09
-2.35061e-09
-2.42266e-09
-2.52079e-09
-2.65553e-09
-2.84477e-09
-3.10979e-09
-3.48285e-09
-4.00594e-09
-4.73657e-09
-5.73219e-09
-6.95613e-09
-8.65509e-09
-1.51553e-09
-8.16934e-10
-7.16312e-10
-7.35046e-10
-7.67049e-10
-8.01564e-10
-8.37625e-10
-8.75025e-10
-9.09487e-10
-9.43492e-10
-9.74641e-10
-1.00359e-09
-1.03105e-09
-1.05707e-09
-1.08176e-09
-1.10567e-09
-1.12874e-09
-1.15255e-09
-1.17497e-09
-1.1975e-09
-1.22072e-09
-1.2426e-09
-1.26487e-09
-1.28668e-09
-1.30913e-09
-1.33113e-09
-1.3528e-09
-1.37533e-09
-1.39737e-09
-1.4193e-09
-1.44165e-09
-1.46394e-09
-1.48582e-09
-1.50742e-09
-1.52995e-09
-1.55193e-09
-1.57438e-09
-1.59616e-09
-1.6186e-09
-1.63981e-09
-1.66276e-09
-1.68434e-09
-1.70628e-09
-1.72854e-09
-1.75002e-09
-1.77169e-09
-1.79366e-09
-1.81528e-09
-1.83728e-09
-1.85772e-09
-1.88026e-09
-1.90201e-09
-1.92355e-09
-1.94435e-09
-1.96595e-09
-1.98705e-09
-2.00792e-09
-2.0294e-09
-2.05048e-09
-2.07106e-09
-2.0923e-09
-2.11419e-09
-2.13612e-09
-2.15891e-09
-2.18622e-09
-2.21646e-09
-2.25224e-09
-2.29648e-09
-2.35323e-09
-2.4275e-09
-2.52859e-09
-2.66718e-09
-2.86075e-09
-3.13281e-09
-3.51523e-09
-4.04974e-09
-4.79291e-09
-5.81159e-09
-7.09446e-09
-8.33012e-09
-5.9372e-10
1.2604e-09
-5.58005e-10
-7.06929e-10
-7.32919e-10
-7.64497e-10
-8.00167e-10
-8.3735e-10
-8.74438e-10
-9.1025e-10
-9.43695e-10
-9.76087e-10
-1.00576e-09
-1.03291e-09
-1.05834e-09
-1.083e-09
-1.10698e-09
-1.13103e-09
-1.15278e-09
-1.1758e-09
-1.19868e-09
-1.22075e-09
-1.24322e-09
-1.26549e-09
-1.28805e-09
-1.30962e-09
-1.33228e-09
-1.35456e-09
-1.37604e-09
-1.39808e-09
-1.42023e-09
-1.44196e-09
-1.46416e-09
-1.48592e-09
-1.50861e-09
-1.53015e-09
-1.552e-09
-1.57382e-09
-1.59552e-09
-1.61755e-09
-1.63938e-09
-1.66182e-09
-1.68375e-09
-1.70596e-09
-1.72827e-09
-1.75077e-09
-1.77292e-09
-1.79379e-09
-1.81559e-09
-1.83765e-09
-1.85963e-09
-1.88137e-09
-1.90267e-09
-1.92403e-09
-1.94605e-09
-1.96665e-09
-1.98815e-09
-2.00934e-09
-2.03013e-09
-2.05099e-09
-2.07181e-09
-2.09322e-09
-2.11512e-09
-2.13813e-09
-2.16266e-09
-2.18871e-09
-2.21899e-09
-2.25539e-09
-2.30091e-09
-2.35839e-09
-2.43429e-09
-2.53717e-09
-2.67882e-09
-2.87655e-09
-3.15452e-09
-3.54414e-09
-4.08915e-09
-4.84462e-09
-5.88332e-09
-7.4154e-09
-1.11411e-08
-1.12719e-08
-2.70002e-10
-1.71121e-09
-8.42488e-10
-7.11094e-10
-7.31065e-10
-7.61767e-10
-7.97667e-10
-8.35467e-10
-8.72759e-10
-9.08602e-10
-9.42847e-10
-9.75134e-10
-1.00397e-09
-1.03135e-09
-1.05728e-09
-1.08191e-09
-1.10586e-09
-1.12917e-09
-1.15214e-09
-1.17511e-09
-1.19758e-09
-1.22024e-09
-1.24259e-09
-1.26473e-09
-1.28688e-09
-1.309e-09
-1.3313e-09
-1.35321e-09
-1.37537e-09
-1.39734e-09
-1.41933e-09
-1.44123e-09
-1.46358e-09
-1.48528e-09
-1.50763e-09
-1.52925e-09
-1.55098e-09
-1.57302e-09
-1.59479e-09
-1.61699e-09
-1.63919e-09
-1.66141e-09
-1.68325e-09
-1.70524e-09
-1.72712e-09
-1.74956e-09
-1.7715e-09
-1.79297e-09
-1.81497e-09
-1.83702e-09
-1.85859e-09
-1.8802e-09
-1.90194e-09
-1.92344e-09
-1.94492e-09
-1.96611e-09
-1.98742e-09
-2.00843e-09
-2.02967e-09
-2.05061e-09
-2.07184e-09
-2.09335e-09
-2.11535e-09
-2.13811e-09
-2.16254e-09
-2.1895e-09
-2.22049e-09
-2.25731e-09
-2.30367e-09
-2.36235e-09
-2.43939e-09
-2.54433e-09
-2.6884e-09
-2.88949e-09
-3.17216e-09
-3.56866e-09
-4.12184e-09
-4.8873e-09
-5.93474e-09
-7.22688e-09
-8.34506e-09
-1.13229e-08
-1.38481e-08
5.70625e-11
5.81691e-10
-5.6366e-10
-7.03056e-10
-7.30292e-10
-7.60323e-10
-7.96303e-10
-8.34255e-10
-8.72025e-10
-9.08136e-10
-9.42776e-10
-9.75062e-10
-1.00439e-09
-1.03142e-09
-1.0572e-09
-1.08193e-09
-1.10574e-09
-1.12924e-09
-1.15231e-09
-1.17491e-09
-1.19761e-09
-1.22018e-09
-1.2425e-09
-1.26478e-09
-1.28677e-09
-1.30904e-09
-1.33117e-09
-1.35326e-09
-1.37517e-09
-1.39738e-09
-1.41921e-09
-1.44124e-09
-1.46336e-09
-1.48527e-09
-1.50707e-09
-1.52864e-09
-1.55062e-09
-1.57275e-09
-1.5947e-09
-1.61685e-09
-1.63918e-09
-1.66148e-09
-1.68324e-09
-1.70514e-09
-1.727e-09
-1.74903e-09
-1.77109e-09
-1.79276e-09
-1.81497e-09
-1.8368e-09
-1.85857e-09
-1.88032e-09
-1.90197e-09
-1.92345e-09
-1.94496e-09
-1.96618e-09
-1.98751e-09
-2.00865e-09
-2.02973e-09
-2.05107e-09
-2.07217e-09
-2.09387e-09
-2.11593e-09
-2.13906e-09
-2.16389e-09
-2.19096e-09
-2.22206e-09
-2.2596e-09
-2.30654e-09
-2.3659e-09
-2.44439e-09
-2.55038e-09
-2.69641e-09
-2.90012e-09
-3.18625e-09
-3.58765e-09
-4.14614e-09
-4.91838e-09
-5.97934e-09
-7.5329e-09
-1.0562e-08
-1.14887e-08
-1.38786e-08
-2.89198e-10
-9.05035e-10
-7.33149e-10
-7.06313e-10
-7.29282e-10
-7.59331e-10
-7.95414e-10
-8.33709e-10
-8.71544e-10
-9.07711e-10
-9.42582e-10
-9.74794e-10
-1.00409e-09
-1.03122e-09
-1.05693e-09
-1.08169e-09
-1.1055e-09
-1.12912e-09
-1.15219e-09
-1.17467e-09
-1.19743e-09
-1.21995e-09
-1.24229e-09
-1.26461e-09
-1.28664e-09
-1.30889e-09
-1.33087e-09
-1.3531e-09
-1.37506e-09
-1.39713e-09
-1.419e-09
-1.44112e-09
-1.46312e-09
-1.48487e-09
-1.5067e-09
-1.52838e-09
-1.55051e-09
-1.57245e-09
-1.59437e-09
-1.61644e-09
-1.63833e-09
-1.66019e-09
-1.68215e-09
-1.70433e-09
-1.72643e-09
-1.74858e-09
-1.77074e-09
-1.79262e-09
-1.81482e-09
-1.83671e-09
-1.85845e-09
-1.88014e-09
-1.90185e-09
-1.92344e-09
-1.94489e-09
-1.96618e-09
-1.98748e-09
-2.00852e-09
-2.02983e-09
-2.05115e-09
-2.07252e-09
-2.0942e-09
-2.11648e-09
-2.13975e-09
-2.16471e-09
-2.19218e-09
-2.22344e-09
-2.26164e-09
-2.30891e-09
-2.36893e-09
-2.44816e-09
-2.55535e-09
-2.70252e-09
-2.90786e-09
-3.19621e-09
-3.60051e-09
-4.16226e-09
-4.93817e-09
-6.00128e-09
-7.40797e-09
-9.17723e-09
-1.14747e-08
-1.39818e-08
-6.88174e-10
-9.23805e-10
-7.29483e-10
-7.06212e-10
-7.29197e-10
-7.59321e-10
-7.95397e-10
-8.33718e-10
-8.71562e-10
-9.07724e-10
-9.42536e-10
-9.74813e-10
-1.00414e-09
-1.03117e-09
-1.05699e-09
-1.08174e-09
-1.10555e-09
-1.12925e-09
-1.15204e-09
-1.17463e-09
-1.19743e-09
-1.21993e-09
-1.24235e-09
-1.26465e-09
-1.28658e-09
-1.3089e-09
-1.33088e-09
-1.35304e-09
-1.37511e-09
-1.39715e-09
-1.4191e-09
-1.44117e-09
-1.46317e-09
-1.485e-09
-1.50673e-09
-1.52859e-09
-1.55082e-09
-1.57272e-09
-1.59472e-09
-1.61699e-09
-1.639e-09
-1.66094e-09
-1.68276e-09
-1.70465e-09
-1.7266e-09
-1.74873e-09
-1.77087e-09
-1.79275e-09
-1.81494e-09
-1.8368e-09
-1.85861e-09
-1.88017e-09
-1.90196e-09
-1.92354e-09
-1.94499e-09
-1.96639e-09
-1.98764e-09
-2.0088e-09
-2.03014e-09
-2.05158e-09
-2.07302e-09
-2.09476e-09
-2.11714e-09
-2.14059e-09
-2.16576e-09
-2.19344e-09
-2.22501e-09
-2.26349e-09
-2.31102e-09
-2.37144e-09
-2.45128e-09
-2.55899e-09
-2.70679e-09
-2.91279e-09
-3.20188e-09
-3.6068e-09
-4.16921e-09
-4.94573e-09
-6.00921e-09
-7.41159e-09
-9.20264e-09
-1.14266e-08
-1.40978e-08
-9.36518e-10
5.04716e-10
-5.71107e-10
-7.04087e-10
-7.30118e-10
-7.60418e-10
-7.96242e-10
-8.34279e-10
-8.71951e-10
-9.08117e-10
-9.42692e-10
-9.75027e-10
-1.00452e-09
-1.03151e-09
-1.05738e-09
-1.08222e-09
-1.10587e-09
-1.12939e-09
-1.15285e-09
-1.17499e-09
-1.19749e-09
-1.22008e-09
-1.24258e-09
-1.26492e-09
-1.28683e-09
-1.30945e-09
-1.33105e-09
-1.35364e-09
-1.37522e-09
-1.39726e-09
-1.41946e-09
-1.4414e-09
-1.46375e-09
-1.48536e-09
-1.50705e-09
-1.52873e-09
-1.55078e-09
-1.57255e-09
-1.59436e-09
-1.61642e-09
-1.63865e-09
-1.66081e-09
-1.68275e-09
-1.70457e-09
-1.72667e-09
-1.74895e-09
-1.77131e-09
-1.79316e-09
-1.81537e-09
-1.83705e-09
-1.85901e-09
-1.88043e-09
-1.90215e-09
-1.92373e-09
-1.94537e-09
-1.96686e-09
-1.98801e-09
-2.00926e-09
-2.03064e-09
-2.05211e-09
-2.07385e-09
-2.09543e-09
-2.11798e-09
-2.14152e-09
-2.16677e-09
-2.19469e-09
-2.22667e-09
-2.26497e-09
-2.31286e-09
-2.37367e-09
-2.4536e-09
-2.56117e-09
-2.70913e-09
-2.9149e-09
-3.2032e-09
-3.60663e-09
-4.16716e-09
-4.94133e-09
-6.0053e-09
-7.57278e-09
-1.06537e-08
-1.14179e-08
-1.40857e-08
-9.68932e-10
-1.66356e-09
-8.34195e-10
-7.09935e-10
-7.30911e-10
-7.61668e-10
-7.97618e-10
-8.35577e-10
-8.72621e-10
-9.08603e-10
-9.42795e-10
-9.75022e-10
-1.00406e-09
-1.03111e-09
-1.05735e-09
-1.08188e-09
-1.10591e-09
-1.12947e-09
-1.15174e-09
-1.17494e-09
-1.1975e-09
-1.21995e-09
-1.2426e-09
-1.2647e-09
-1.2869e-09
-1.30863e-09
-1.33091e-09
-1.35271e-09
-1.37518e-09
-1.39731e-09
-1.41901e-09
-1.4414e-09
-1.46288e-09
-1.48545e-09
-1.50742e-09
-1.52942e-09
-1.55145e-09
-1.57308e-09
-1.59498e-09
-1.61698e-09
-1.63899e-09
-1.66116e-09
-1.68333e-09
-1.70502e-09
-1.72747e-09
-1.74958e-09
-1.77177e-09
-1.79332e-09
-1.81503e-09
-1.83711e-09
-1.85845e-09
-1.88045e-09
-1.90234e-09
-1.92367e-09
-1.94536e-09
-1.96646e-09
-1.98806e-09
-2.00931e-09
-2.03051e-09
-2.05241e-09
-2.0734e-09
-2.09584e-09
-2.11849e-09
-2.14216e-09
-2.1675e-09
-2.19558e-09
-2.22746e-09
-2.26606e-09
-2.31412e-09
-2.37463e-09
-2.45494e-09
-2.56223e-09
-2.70951e-09
-2.91398e-09
-3.20016e-09
-3.60052e-09
-4.15674e-09
-4.92532e-09
-5.97504e-09
-7.25858e-09
-8.354e-09
-1.1338e-08
-1.40184e-08
-6.5743e-10
1.24512e-09
-5.71116e-10
-7.06488e-10
-7.32552e-10
-7.6399e-10
-8.00154e-10
-8.37357e-10
-8.74578e-10
-9.0995e-10
-9.44372e-10
-9.76176e-10
-1.00561e-09
-1.03289e-09
-1.05872e-09
-1.08323e-09
-1.10724e-09
-1.1305e-09
-1.15378e-09
-1.17616e-09
-1.19788e-09
-1.22058e-09
-1.24361e-09
-1.26551e-09
-1.28799e-09
-1.31041e-09
-1.33241e-09
-1.35466e-09
-1.37652e-09
-1.3982e-09
-1.42039e-09
-1.44238e-09
-1.465e-09
-1.48665e-09
-1.50871e-09
-1.53091e-09
-1.55326e-09
-1.57412e-09
-1.59578e-09
-1.61766e-09
-1.63968e-09
-1.6618e-09
-1.68427e-09
-1.70627e-09
-1.72888e-09
-1.7511e-09
-1.77315e-09
-1.79457e-09
-1.81643e-09
-1.83846e-09
-1.85999e-09
-1.88196e-09
-1.90301e-09
-1.92522e-09
-1.94671e-09
-1.96828e-09
-1.98955e-09
-2.01069e-09
-2.03136e-09
-2.054e-09
-2.07561e-09
-2.09708e-09
-2.12017e-09
-2.14405e-09
-2.16955e-09
-2.1977e-09
-2.22968e-09
-2.26812e-09
-2.31639e-09
-2.37591e-09
-2.45559e-09
-2.56229e-09
-2.70836e-09
-2.91057e-09
-3.19351e-09
-3.58813e-09
-4.13788e-09
-4.89744e-09
-5.94029e-09
-7.4896e-09
-1.12214e-08
-1.13518e-08
-1.39364e-08
-5.68306e-10
-1.52095e-09
-8.11063e-10
-7.15505e-10
-7.34367e-10
-7.66196e-10
-8.01538e-10
-8.38085e-10
-8.74146e-10
-9.09827e-10
-9.43139e-10
-9.74975e-10
-1.00401e-09
-1.03101e-09
-1.05675e-09
-1.08128e-09
-1.1051e-09
-1.12907e-09
-1.15197e-09
-1.17428e-09
-1.19761e-09
-1.22034e-09
-1.24176e-09
-1.26443e-09
-1.28631e-09
-1.3087e-09
-1.33062e-09
-1.35264e-09
-1.37446e-09
-1.39652e-09
-1.41864e-09
-1.44093e-09
-1.46275e-09
-1.48496e-09
-1.50714e-09
-1.52911e-09
-1.5513e-09
-1.57412e-09
-1.59574e-09
-1.6179e-09
-1.63965e-09
-1.66162e-09
-1.6843e-09
-1.7062e-09
-1.72745e-09
-1.74935e-09
-1.77083e-09
-1.79287e-09
-1.81466e-09
-1.83693e-09
-1.85841e-09
-1.87931e-09
-1.90197e-09
-1.92329e-09
-1.94505e-09
-1.9658e-09
-1.98785e-09
-2.00947e-09
-2.03139e-09
-2.05256e-09
-2.0742e-09
-2.09627e-09
-2.11883e-09
-2.14303e-09
-2.16847e-09
-2.19588e-09
-2.22868e-09
-2.26737e-09
-2.31513e-09
-2.37549e-09
-2.45478e-09
-2.56043e-09
-2.70473e-09
-2.90439e-09
-3.18246e-09
-3.57092e-09
-4.11166e-09
-4.86041e-09
-5.88397e-09
-7.16532e-09
-8.42324e-09
-1.11549e-08
-1.07639e-09
-8.5395e-10
-7.21245e-10
-7.34404e-10
-7.71395e-10
-8.06307e-10
-8.42675e-10
-8.78161e-10
-9.12898e-10
-9.45881e-10
-9.76704e-10
-1.00606e-09
-1.03328e-09
-1.05996e-09
-1.08411e-09
-1.10885e-09
-1.13146e-09
-1.15425e-09
-1.17706e-09
-1.20062e-09
-1.22265e-09
-1.24533e-09
-1.26741e-09
-1.28884e-09
-1.3109e-09
-1.3331e-09
-1.35524e-09
-1.37738e-09
-1.39968e-09
-1.42127e-09
-1.44353e-09
-1.46562e-09
-1.4875e-09
-1.50939e-09
-1.5316e-09
-1.55389e-09
-1.5766e-09
-1.59904e-09
-1.6203e-09
-1.64224e-09
-1.66494e-09
-1.68673e-09
-1.70852e-09
-1.72967e-09
-1.7519e-09
-1.77456e-09
-1.79546e-09
-1.81774e-09
-1.83929e-09
-1.8608e-09
-1.88392e-09
-1.90493e-09
-1.92578e-09
-1.94778e-09
-1.97005e-09
-1.99067e-09
-2.01208e-09
-2.03365e-09
-2.05594e-09
-2.07643e-09
-2.09958e-09
-2.12194e-09
-2.14579e-09
-2.17115e-09
-2.20024e-09
-2.23211e-09
-2.2704e-09
-2.31753e-09
-2.37836e-09
-2.45534e-09
-2.55986e-09
-2.70081e-09
-2.89715e-09
-3.16902e-09
-3.55038e-09
-4.08041e-09
-4.81708e-09
-5.81875e-09
-7.04687e-09
-8.75178e-09
3.60994e-12
-1.02173e-09
-7.10935e-10
-7.25422e-10
-7.64691e-10
-8.02114e-10
-8.39092e-10
-8.74368e-10
-9.10452e-10
-9.43634e-10
-9.75254e-10
-1.00423e-09
-1.03112e-09
-1.05657e-09
-1.08178e-09
-1.10468e-09
-1.12942e-09
-1.15249e-09
-1.17507e-09
-1.19829e-09
-1.22021e-09
-1.24178e-09
-1.26363e-09
-1.28688e-09
-1.30975e-09
-1.33095e-09
-1.35287e-09
-1.37505e-09
-1.39524e-09
-1.41907e-09
-1.4421e-09
-1.46337e-09
-1.48546e-09
-1.50795e-09
-1.52946e-09
-1.5518e-09
-1.57497e-09
-1.59659e-09
-1.6183e-09
-1.63987e-09
-1.66218e-09
-1.68319e-09
-1.70612e-09
-1.72787e-09
-1.7498e-09
-1.77006e-09
-1.79364e-09
-1.81496e-09
-1.83788e-09
-1.859e-09
-1.88013e-09
-1.90115e-09
-1.92422e-09
-1.94644e-09
-1.96703e-09
-1.9887e-09
-2.01026e-09
-2.03209e-09
-2.05254e-09
-2.07515e-09
-2.09762e-09
-2.12034e-09
-2.14424e-09
-2.17045e-09
-2.196e-09
-2.22994e-09
-2.26673e-09
-2.31539e-09
-2.3739e-09
-2.45013e-09
-2.55198e-09
-2.69124e-09
-2.88352e-09
-3.15191e-09
-3.52474e-09
-4.04311e-09
-4.76689e-09
-5.74876e-09
-6.76241e-09
-9.72522e-09
1.38627e-11
-7.3466e-10
-7.1453e-10
-7.40633e-10
-7.69861e-10
-8.06175e-10
-8.4204e-10
-8.77154e-10
-9.11193e-10
-9.4333e-10
-9.73406e-10
-1.00318e-09
-1.03079e-09
-1.05721e-09
-1.08194e-09
-1.10528e-09
-1.12919e-09
-1.15226e-09
-1.17645e-09
-1.19706e-09
-1.22003e-09
-1.24235e-09
-1.26448e-09
-1.28546e-09
-1.30936e-09
-1.33086e-09
-1.3533e-09
-1.37424e-09
-1.3966e-09
-1.41992e-09
-1.44088e-09
-1.46312e-09
-1.48413e-09
-1.50735e-09
-1.52958e-09
-1.55114e-09
-1.57247e-09
-1.59453e-09
-1.61712e-09
-1.63899e-09
-1.66005e-09
-1.68289e-09
-1.70443e-09
-1.72715e-09
-1.74959e-09
-1.7702e-09
-1.79307e-09
-1.81387e-09
-1.8362e-09
-1.85831e-09
-1.87927e-09
-1.90117e-09
-1.9224e-09
-1.94321e-09
-1.96421e-09
-1.98652e-09
-2.00601e-09
-2.02532e-09
-2.0464e-09
-2.06797e-09
-2.08744e-09
-2.10737e-09
-2.12824e-09
-2.14952e-09
-2.17155e-09
-2.19699e-09
-2.22559e-09
-2.2601e-09
-2.30623e-09
-2.36273e-09
-2.43754e-09
-2.54169e-09
-2.69047e-09
-2.89863e-09
-3.19127e-09
-3.60714e-09
-4.20465e-09
-5.05045e-09
-6.20962e-09
-8.7069e-09
-1.17249e-09
-1.30631e-09
-6.83202e-10
-7.1228e-10
-7.44868e-10
-7.77275e-10
-8.10593e-10
-8.44994e-10
-8.79211e-10
-9.11932e-10
-9.44567e-10
-9.75334e-10
-1.00422e-09
-1.0329e-09
-1.05833e-09
-1.08383e-09
-1.10802e-09
-1.13101e-09
-1.15411e-09
-1.17704e-09
-1.19951e-09
-1.22121e-09
-1.24415e-09
-1.26643e-09
-1.28905e-09
-1.31096e-09
-1.33257e-09
-1.35468e-09
-1.37726e-09
-1.39876e-09
-1.4212e-09
-1.44343e-09
-1.46474e-09
-1.48682e-09
-1.50893e-09
-1.5314e-09
-1.55257e-09
-1.57516e-09
-1.5974e-09
-1.61859e-09
-1.64082e-09
-1.66401e-09
-1.68477e-09
-1.70642e-09
-1.72963e-09
-1.75062e-09
-1.77275e-09
-1.7948e-09
-1.81656e-09
-1.83899e-09
-1.85924e-09
-1.88084e-09
-1.90304e-09
-1.9242e-09
-1.94555e-09
-1.96687e-09
-1.98695e-09
-2.00827e-09
-2.02923e-09
-2.04917e-09
-2.06968e-09
-2.09135e-09
-2.11082e-09
-2.1307e-09
-2.15282e-09
-2.17635e-09
-2.20166e-09
-2.23239e-09
-2.27055e-09
-2.31463e-09
-2.37444e-09
-2.45566e-09
-2.56429e-09
-2.72011e-09
-2.93854e-09
-3.24645e-09
-3.68536e-09
-4.3102e-09
-5.19817e-09
-6.45445e-09
-7.60294e-09
-9.68573e-09
-5.31921e-10
4.58777e-10
-6.32392e-10
-7.06446e-10
-7.40312e-10
-7.72746e-10
-8.06172e-10
-8.40045e-10
-8.74323e-10
-9.08733e-10
-9.41419e-10
-9.73505e-10
-1.00388e-09
-1.03077e-09
-1.05732e-09
-1.08238e-09
-1.10595e-09
-1.13014e-09
-1.15289e-09
-1.1752e-09
-1.19846e-09
-1.22052e-09
-1.24312e-09
-1.26535e-09
-1.28666e-09
-1.30883e-09
-1.33085e-09
-1.35357e-09
-1.37539e-09
-1.39761e-09
-1.41948e-09
-1.44037e-09
-1.46324e-09
-1.48563e-09
-1.50771e-09
-1.5296e-09
-1.55203e-09
-1.57363e-09
-1.59516e-09
-1.61762e-09
-1.6396e-09
-1.66209e-09
-1.68353e-09
-1.70561e-09
-1.72667e-09
-1.74972e-09
-1.77102e-09
-1.79371e-09
-1.81523e-09
-1.83701e-09
-1.8588e-09
-1.87943e-09
-1.90177e-09
-1.92324e-09
-1.945e-09
-1.9652e-09
-1.98577e-09
-2.00666e-09
-2.02786e-09
-2.04877e-09
-2.06911e-09
-2.08895e-09
-2.10996e-09
-2.13103e-09
-2.15351e-09
-2.17685e-09
-2.20395e-09
-2.23433e-09
-2.27328e-09
-2.32189e-09
-2.3847e-09
-2.46872e-09
-2.58615e-09
-2.75e-09
-2.98209e-09
-3.308e-09
-3.76985e-09
-4.42416e-09
-5.34818e-09
-6.68556e-09
-9.56987e-09
-1.01254e-08
-1.19346e-08
-5.42029e-10
-6.33602e-10
-6.4781e-10
-7.03802e-10
-7.35447e-10
-7.68553e-10
-8.03023e-10
-8.3688e-10
-8.73702e-10
-9.08089e-10
-9.41495e-10
-9.74057e-10
-1.00199e-09
-1.03123e-09
-1.05799e-09
-1.08224e-09
-1.10726e-09
-1.12936e-09
-1.15362e-09
-1.17591e-09
-1.1982e-09
-1.2204e-09
-1.24192e-09
-1.26609e-09
-1.28837e-09
-1.3094e-09
-1.33115e-09
-1.35237e-09
-1.37613e-09
-1.39844e-09
-1.41989e-09
-1.44081e-09
-1.46345e-09
-1.48662e-09
-1.50903e-09
-1.53038e-09
-1.5502e-09
-1.57415e-09
-1.59593e-09
-1.61667e-09
-1.63836e-09
-1.66237e-09
-1.68331e-09
-1.70556e-09
-1.72874e-09
-1.74828e-09
-1.77106e-09
-1.79425e-09
-1.81582e-09
-1.83756e-09
-1.85732e-09
-1.88038e-09
-1.90229e-09
-1.92448e-09
-1.94329e-09
-1.96596e-09
-1.98718e-09
-2.00703e-09
-2.02907e-09
-2.04781e-09
-2.06988e-09
-2.09043e-09
-2.11042e-09
-2.13261e-09
-2.1539e-09
-2.18e-09
-2.20673e-09
-2.23888e-09
-2.27881e-09
-2.32811e-09
-2.39422e-09
-2.48421e-09
-2.60676e-09
-2.77959e-09
-3.02364e-09
-3.36543e-09
-3.84903e-09
-4.52977e-09
-5.48474e-09
-6.8393e-09
-8.66821e-09
-1.03061e-08
-1.23716e-08
-5.87289e-10
-4.6108e-10
-6.0536e-10
-6.999e-10
-7.32015e-10
-7.67389e-10
-8.04792e-10
-8.42759e-10
-8.77417e-10
-9.12412e-10
-9.4552e-10
-9.75705e-10
-1.00675e-09
-1.03256e-09
-1.05881e-09
-1.08487e-09
-1.10784e-09
-1.13286e-09
-1.15432e-09
-1.17659e-09
-1.19933e-09
-1.22225e-09
-1.24638e-09
-1.26672e-09
-1.28878e-09
-1.31026e-09
-1.33418e-09
-1.3567e-09
-1.37641e-09
-1.39906e-09
-1.42114e-09
-1.44459e-09
-1.46621e-09
-1.48742e-09
-1.50844e-09
-1.53156e-09
-1.55596e-09
-1.57485e-09
-1.59751e-09
-1.62009e-09
-1.64287e-09
-1.6637e-09
-1.68638e-09
-1.70647e-09
-1.7295e-09
-1.75335e-09
-1.77449e-09
-1.79446e-09
-1.81621e-09
-1.83863e-09
-1.86223e-09
-1.88294e-09
-1.90324e-09
-1.92428e-09
-1.94796e-09
-1.96667e-09
-1.98809e-09
-2.01048e-09
-2.03017e-09
-2.05244e-09
-2.07101e-09
-2.09204e-09
-2.11407e-09
-2.13474e-09
-2.15985e-09
-2.18288e-09
-2.21096e-09
-2.24593e-09
-2.28563e-09
-2.34036e-09
-2.41019e-09
-2.50351e-09
-2.63301e-09
-2.81432e-09
-3.06885e-09
-3.42683e-09
-3.93033e-09
-4.63358e-09
-5.61368e-09
-7.04211e-09
-9.02612e-09
-1.051e-08
-1.32679e-08
-6.54757e-10
-1.20571e-09
-7.01123e-10
-7.10778e-10
-7.36617e-10
-7.74204e-10
-8.11946e-10
-8.48938e-10
-8.83829e-10
-9.17346e-10
-9.49751e-10
-9.81368e-10
-1.00899e-09
-1.03601e-09
-1.06177e-09
-1.08633e-09
-1.11022e-09
-1.13365e-09
-1.15677e-09
-1.18098e-09
-1.20169e-09
-1.22565e-09
-1.24719e-09
-1.269e-09
-1.29131e-09
-1.31377e-09
-1.335e-09
-1.35767e-09
-1.38032e-09
-1.40135e-09
-1.4229e-09
-1.44516e-09
-1.46869e-09
-1.4897e-09
-1.51304e-09
-1.5334e-09
-1.557e-09
-1.57976e-09
-1.6004e-09
-1.62431e-09
-1.6456e-09
-1.66816e-09
-1.69023e-09
-1.71155e-09
-1.73263e-09
-1.75457e-09
-1.77532e-09
-1.79883e-09
-1.82005e-09
-1.84085e-09
-1.86331e-09
-1.8841e-09
-1.90489e-09
-1.92892e-09
-1.94847e-09
-1.97069e-09
-1.99041e-09
-2.01148e-09
-2.03279e-09
-2.05324e-09
-2.07515e-09
-2.09574e-09
-2.11792e-09
-2.13827e-09
-2.1622e-09
-2.18646e-09
-2.2174e-09
-2.25109e-09
-2.29586e-09
-2.35214e-09
-2.42404e-09
-2.52243e-09
-2.65729e-09
-2.84481e-09
-3.10817e-09
-3.47766e-09
-3.99716e-09
-4.72087e-09
-5.72008e-09
-7.08961e-09
-8.46383e-09
-1.07391e-08
-1.34968e-08
-6.74251e-10
-1.27112e-09
-7.31544e-10
-7.1252e-10
-7.38707e-10
-7.74789e-10
-8.12099e-10
-8.48483e-10
-8.83451e-10
-9.16047e-10
-9.48619e-10
-9.79539e-10
-1.00806e-09
-1.03462e-09
-1.06023e-09
-1.08498e-09
-1.10834e-09
-1.13195e-09
-1.15492e-09
-1.1785e-09
-1.20006e-09
-1.22354e-09
-1.24425e-09
-1.26697e-09
-1.28929e-09
-1.31083e-09
-1.33396e-09
-1.35534e-09
-1.37714e-09
-1.39956e-09
-1.42174e-09
-1.44459e-09
-1.46636e-09
-1.48887e-09
-1.50992e-09
-1.53297e-09
-1.55491e-09
-1.57782e-09
-1.5991e-09
-1.6222e-09
-1.64401e-09
-1.66632e-09
-1.6883e-09
-1.70982e-09
-1.73089e-09
-1.75266e-09
-1.77409e-09
-1.79646e-09
-1.81755e-09
-1.83867e-09
-1.86093e-09
-1.88289e-09
-1.90383e-09
-1.92589e-09
-1.94716e-09
-1.96768e-09
-1.98925e-09
-2.01034e-09
-2.03069e-09
-2.05312e-09
-2.07313e-09
-2.09457e-09
-2.11673e-09
-2.13789e-09
-2.16169e-09
-2.18774e-09
-2.21797e-09
-2.25462e-09
-2.2985e-09
-2.35626e-09
-2.4312e-09
-2.53235e-09
-2.6713e-09
-2.86452e-09
-3.13483e-09
-3.51412e-09
-4.04623e-09
-4.78587e-09
-5.80119e-09
-7.15993e-09
-8.5217e-09
-1.09184e-08
-1.36885e-08
-6.68331e-10
-8.82841e-10
-6.46973e-10
-7.07403e-10
-7.38735e-10
-7.75024e-10
-8.11882e-10
-8.48174e-10
-8.83183e-10
-9.16257e-10
-9.48858e-10
-9.80099e-10
-1.00992e-09
-1.03672e-09
-1.06222e-09
-1.08702e-09
-1.1105e-09
-1.1342e-09
-1.15682e-09
-1.17873e-09
-1.20177e-09
-1.22384e-09
-1.24634e-09
-1.26878e-09
-1.29119e-09
-1.31303e-09
-1.33553e-09
-1.3575e-09
-1.37955e-09
-1.40128e-09
-1.42342e-09
-1.44505e-09
-1.46739e-09
-1.48921e-09
-1.51195e-09
-1.53318e-09
-1.55517e-09
-1.57702e-09
-1.59899e-09
-1.62126e-09
-1.64329e-09
-1.66553e-09
-1.68768e-09
-1.70921e-09
-1.73087e-09
-1.7532e-09
-1.77608e-09
-1.79671e-09
-1.81933e-09
-1.84066e-09
-1.86144e-09
-1.88457e-09
-1.90541e-09
-1.92775e-09
-1.94899e-09
-1.97002e-09
-1.99099e-09
-2.01225e-09
-2.03284e-09
-2.05382e-09
-2.07512e-09
-2.09673e-09
-2.11771e-09
-2.14066e-09
-2.16521e-09
-2.19133e-09
-2.22206e-09
-2.25955e-09
-2.30502e-09
-2.36251e-09
-2.4392e-09
-2.54239e-09
-2.68413e-09
-2.88127e-09
-3.15749e-09
-3.54401e-09
-4.08566e-09
-4.8392e-09
-5.8743e-09
-7.31846e-09
-9.02341e-09
-1.16508e-08
-1.38741e-08
-6.71305e-10
-1.29984e-09
-7.73775e-10
-7.10354e-10
-7.37613e-10
-7.74032e-10
-8.10829e-10
-8.47098e-10
-8.81997e-10
-9.15317e-10
-9.48111e-10
-9.79554e-10
-1.00903e-09
-1.03622e-09
-1.06164e-09
-1.08554e-09
-1.10944e-09
-1.13292e-09
-1.15572e-09
-1.17874e-09
-1.20064e-09
-1.22364e-09
-1.24561e-09
-1.26792e-09
-1.29035e-09
-1.31175e-09
-1.33453e-09
-1.35563e-09
-1.37866e-09
-1.40013e-09
-1.42251e-09
-1.44451e-09
-1.46678e-09
-1.48875e-09
-1.51063e-09
-1.53211e-09
-1.55422e-09
-1.57605e-09
-1.59832e-09
-1.62039e-09
-1.64246e-09
-1.66463e-09
-1.68679e-09
-1.70822e-09
-1.72978e-09
-1.75228e-09
-1.77472e-09
-1.79625e-09
-1.81834e-09
-1.84011e-09
-1.86142e-09
-1.88358e-09
-1.90449e-09
-1.92696e-09
-1.94776e-09
-1.96941e-09
-1.99025e-09
-2.0112e-09
-2.03237e-09
-2.05373e-09
-2.07496e-09
-2.09645e-09
-2.11815e-09
-2.14075e-09
-2.16474e-09
-2.19218e-09
-2.22387e-09
-2.26126e-09
-2.30755e-09
-2.36697e-09
-2.44503e-09
-2.5503e-09
-2.69461e-09
-2.89517e-09
-3.17572e-09
-3.56833e-09
-4.11754e-09
-4.87966e-09
-5.92506e-09
-7.2781e-09
-8.6334e-09
-1.16787e-08
-1.40327e-08
-5.98824e-10
-3.95571e-10
-6.31124e-10
-7.04685e-10
-7.37922e-10
-7.7352e-10
-8.10184e-10
-8.46313e-10
-8.81371e-10
-9.14945e-10
-9.47821e-10
-9.7961e-10
-1.00924e-09
-1.03647e-09
-1.06177e-09
-1.08638e-09
-1.11033e-09
-1.13298e-09
-1.15636e-09
-1.17889e-09
-1.20066e-09
-1.22371e-09
-1.24572e-09
-1.26829e-09
-1.29024e-09
-1.3123e-09
-1.33457e-09
-1.35643e-09
-1.37854e-09
-1.40068e-09
-1.42266e-09
-1.44452e-09
-1.46668e-09
-1.48861e-09
-1.50997e-09
-1.5318e-09
-1.55385e-09
-1.57562e-09
-1.59802e-09
-1.62014e-09
-1.64217e-09
-1.66431e-09
-1.68645e-09
-1.70767e-09
-1.72933e-09
-1.7518e-09
-1.7744e-09
-1.79621e-09
-1.81832e-09
-1.83999e-09
-1.86163e-09
-1.88367e-09
-1.90542e-09
-1.92686e-09
-1.94803e-09
-1.9694e-09
-1.99069e-09
-2.01211e-09
-2.03282e-09
-2.05446e-09
-2.07546e-09
-2.09711e-09
-2.11894e-09
-2.14207e-09
-2.16729e-09
-2.19408e-09
-2.22609e-09
-2.26367e-09
-2.31077e-09
-2.37119e-09
-2.45024e-09
-2.55686e-09
-2.70311e-09
-2.90626e-09
-3.18997e-09
-3.58684e-09
-4.1412e-09
-4.90988e-09
-5.96701e-09
-7.45553e-09
-9.57153e-09
-1.18664e-08
-1.41502e-08
-6.41997e-10
-8.92699e-10
-7.13166e-10
-7.06887e-10
-7.37583e-10
-7.73181e-10
-8.09861e-10
-8.46037e-10
-8.81074e-10
-9.1468e-10
-9.47609e-10
-9.7944e-10
-1.00921e-09
-1.03641e-09
-1.06157e-09
-1.08613e-09
-1.11017e-09
-1.13295e-09
-1.15585e-09
-1.17884e-09
-1.2006e-09
-1.22359e-09
-1.24551e-09
-1.26815e-09
-1.29009e-09
-1.31227e-09
-1.33417e-09
-1.35613e-09
-1.37843e-09
-1.40051e-09
-1.42243e-09
-1.44433e-09
-1.46633e-09
-1.48821e-09
-1.50962e-09
-1.5316e-09
-1.55376e-09
-1.5755e-09
-1.59793e-09
-1.62009e-09
-1.6421e-09
-1.66419e-09
-1.68625e-09
-1.70747e-09
-1.72912e-09
-1.75158e-09
-1.77397e-09
-1.79585e-09
-1.81811e-09
-1.84004e-09
-1.86156e-09
-1.88345e-09
-1.90522e-09
-1.92687e-09
-1.94813e-09
-1.96937e-09
-1.99086e-09
-2.01197e-09
-2.03325e-09
-2.05447e-09
-2.07593e-09
-2.09745e-09
-2.11943e-09
-2.14309e-09
-2.16803e-09
-2.19557e-09
-2.22767e-09
-2.26585e-09
-2.31343e-09
-2.3746e-09
-2.45428e-09
-2.562e-09
-2.70952e-09
-2.91426e-09
-3.20007e-09
-3.59951e-09
-4.1567e-09
-4.92912e-09
-5.98904e-09
-7.4007e-09
-9.11045e-09
-1.18483e-08
-1.42243e-08
-6.49795e-10
-9.25746e-10
-7.16093e-10
-7.06915e-10
-7.37502e-10
-7.73172e-10
-8.09859e-10
-8.46029e-10
-8.81097e-10
-9.14669e-10
-9.47583e-10
-9.7945e-10
-1.00917e-09
-1.03647e-09
-1.06157e-09
-1.08603e-09
-1.10996e-09
-1.13296e-09
-1.1558e-09
-1.17884e-09
-1.20064e-09
-1.22357e-09
-1.24554e-09
-1.26808e-09
-1.29003e-09
-1.31228e-09
-1.33399e-09
-1.35626e-09
-1.37831e-09
-1.40058e-09
-1.42251e-09
-1.44436e-09
-1.46621e-09
-1.48825e-09
-1.50954e-09
-1.5315e-09
-1.5538e-09
-1.5754e-09
-1.59791e-09
-1.62006e-09
-1.64214e-09
-1.6641e-09
-1.6862e-09
-1.70748e-09
-1.72917e-09
-1.75165e-09
-1.77392e-09
-1.79586e-09
-1.81817e-09
-1.84006e-09
-1.86179e-09
-1.88343e-09
-1.90534e-09
-1.92688e-09
-1.94823e-09
-1.9694e-09
-1.991e-09
-2.01209e-09
-2.03352e-09
-2.05491e-09
-2.07629e-09
-2.09804e-09
-2.12012e-09
-2.14388e-09
-2.16905e-09
-2.19695e-09
-2.22899e-09
-2.26772e-09
-2.31571e-09
-2.37732e-09
-2.45756e-09
-2.56577e-09
-2.71394e-09
-2.91936e-09
-3.20586e-09
-3.606e-09
-4.16383e-09
-4.93689e-09
-5.99756e-09
-7.41139e-09
-9.15191e-09
-1.18665e-08
-1.42533e-08
-5.94498e-10
-4.44174e-10
-6.30883e-10
-7.04995e-10
-7.37636e-10
-7.73577e-10
-8.10143e-10
-8.46323e-10
-8.81337e-10
-9.1489e-10
-9.47853e-10
-9.79578e-10
-1.00922e-09
-1.03654e-09
-1.06166e-09
-1.08618e-09
-1.10966e-09
-1.13293e-09
-1.15595e-09
-1.17877e-09
-1.20075e-09
-1.22357e-09
-1.24577e-09
-1.26795e-09
-1.29001e-09
-1.31233e-09
-1.33431e-09
-1.35636e-09
-1.37842e-09
-1.4006e-09
-1.42281e-09
-1.44437e-09
-1.4665e-09
-1.48845e-09
-1.50976e-09
-1.53163e-09
-1.554e-09
-1.57541e-09
-1.59778e-09
-1.6199e-09
-1.64205e-09
-1.66413e-09
-1.68612e-09
-1.70764e-09
-1.72936e-09
-1.75196e-09
-1.77421e-09
-1.79619e-09
-1.81858e-09
-1.84021e-09
-1.86213e-09
-1.88358e-09
-1.90564e-09
-1.92714e-09
-1.94872e-09
-1.96975e-09
-1.99117e-09
-2.01239e-09
-2.03406e-09
-2.05555e-09
-2.07682e-09
-2.09871e-09
-2.12104e-09
-2.14469e-09
-2.16996e-09
-2.1982e-09
-2.2307e-09
-2.26921e-09
-2.3176e-09
-2.37929e-09
-2.45988e-09
-2.56815e-09
-2.71633e-09
-2.92149e-09
-3.2073e-09
-3.6063e-09
-4.16247e-09
-4.93323e-09
-5.99288e-09
-7.4861e-09
-9.62966e-09
-1.18855e-08
-1.42251e-08
-6.95219e-10
-1.30975e-09
-7.62234e-10
-7.09382e-10
-7.3779e-10
-7.73926e-10
-8.10739e-10
-8.47084e-10
-8.81993e-10
-9.15317e-10
-9.48026e-10
-9.79553e-10
-1.00897e-09
-1.03632e-09
-1.06137e-09
-1.08608e-09
-1.10954e-09
-1.13278e-09
-1.15562e-09
-1.17865e-09
-1.2008e-09
-1.22338e-09
-1.24579e-09
-1.26774e-09
-1.2901e-09
-1.31208e-09
-1.33425e-09
-1.35619e-09
-1.37838e-09
-1.40011e-09
-1.4223e-09
-1.44427e-09
-1.46644e-09
-1.48846e-09
-1.51027e-09
-1.53198e-09
-1.55464e-09
-1.57573e-09
-1.59795e-09
-1.6201e-09
-1.64231e-09
-1.66443e-09