/*--------------------------------*- C++ -*----------------------------------*\
| =========                 |                                                 |
| \\      /  F ield         | OpenFOAM: The Open Source CFD Toolbox           |
|  \\    /   O peration     | Version:  v1906                                 |
|   \\  /    A nd           | Web:      www.OpenFOAM.com                      |
|    \\/     M anipulation  |                                                 |
\*---------------------------------------------------------------------------*/
FoamFile
{
    version     2.0;
    format      ascii;
    class       volScalarField;
    location    "58.5";
    object      p;
}
// * * * * * * * * * * * * * * * * * * * * * * * * * * * * * * * * * * * * * //

dimensions      [0 2 -2 0 0 0 0];


internalField   nonuniform List<scalar> 
243374
(
3.30865e-17
-3.91762e-11
-5.89538e-11
-8.19329e-11
-1.04578e-10
-1.26907e-10
-1.49084e-10
-1.71149e-10
-1.93169e-10
-2.15145e-10
-2.371e-10
-2.59056e-10
-2.81005e-10
-3.02946e-10
-3.24891e-10
-3.4683e-10
-3.6878e-10
-3.90731e-10
-4.12672e-10
-4.34629e-10
-4.56589e-10
-4.78525e-10
-5.00473e-10
-5.22435e-10
-5.44379e-10
-5.66333e-10
-5.88286e-10
-6.10231e-10
-6.32184e-10
-6.5414e-10
-6.76092e-10
-6.98039e-10
-7.19992e-10
-7.41945e-10
-7.63899e-10
-7.85851e-10
-8.07794e-10
-8.29753e-10
-8.51708e-10
-8.73653e-10
-8.95604e-10
-9.17565e-10
-9.3951e-10
-9.61465e-10
-9.83416e-10
-1.00537e-09
-1.02732e-09
-1.04928e-09
-1.07124e-09
-1.09319e-09
-1.11516e-09
-1.13712e-09
-1.15909e-09
-1.18106e-09
-1.20305e-09
-1.22504e-09
-1.24706e-09
-1.26909e-09
-1.29116e-09
-1.31329e-09
-1.33549e-09
-1.35778e-09
-1.3802e-09
-1.40283e-09
-1.42573e-09
-1.44902e-09
-1.47286e-09
-1.49748e-09
-1.52319e-09
-1.55042e-09
-1.57989e-09
-1.61226e-09
-1.64893e-09
-1.69138e-09
-1.74173e-09
-1.80252e-09
-1.87808e-09
-1.97217e-09
-2.08344e-09
-2.25697e-09
-1.24868e-11
-4.00308e-11
-5.93244e-11
-8.2101e-11
-1.0467e-10
-1.2697e-10
-1.49128e-10
-1.71184e-10
-1.93181e-10
-2.15159e-10
-2.37118e-10
-2.59065e-10
-2.81005e-10
-3.02949e-10
-3.24894e-10
-3.46843e-10
-3.68793e-10
-3.90733e-10
-4.1269e-10
-4.34633e-10
-4.5658e-10
-4.78547e-10
-5.00492e-10
-5.22428e-10
-5.44389e-10
-5.6634e-10
-5.88289e-10
-6.10243e-10
-6.32193e-10
-6.54143e-10
-6.76096e-10
-6.98051e-10
-7.19998e-10
-7.4195e-10
-7.63906e-10
-7.85854e-10
-8.07811e-10
-8.29757e-10
-8.51709e-10
-8.73664e-10
-8.95614e-10
-9.17565e-10
-9.39518e-10
-9.61475e-10
-9.83418e-10
-1.00538e-09
-1.02733e-09
-1.04928e-09
-1.07125e-09
-1.09321e-09
-1.11516e-09
-1.13712e-09
-1.15909e-09
-1.18107e-09
-1.20305e-09
-1.22505e-09
-1.24706e-09
-1.2691e-09
-1.29117e-09
-1.31329e-09
-1.33548e-09
-1.35778e-09
-1.38021e-09
-1.40285e-09
-1.42575e-09
-1.44906e-09
-1.47294e-09
-1.4976e-09
-1.52338e-09
-1.5507e-09
-1.58029e-09
-1.61295e-09
-1.64978e-09
-1.69258e-09
-1.74341e-09
-1.8051e-09
-1.88129e-09
-1.97646e-09
-2.09033e-09
-2.2497e-09
-2.95587e-11
-4.02196e-11
-5.95741e-11
-8.21945e-11
-1.04712e-10
-1.26987e-10
-1.49124e-10
-1.71183e-10
-1.93191e-10
-2.15159e-10
-2.37107e-10
-2.59059e-10
-2.81006e-10
-3.0295e-10
-3.2489e-10
-3.46834e-10
-3.68775e-10
-3.90733e-10
-4.12673e-10
-4.34627e-10
-4.56586e-10
-4.78512e-10
-5.0047e-10
-5.22443e-10
-5.4438e-10
-5.66331e-10
-5.88287e-10
-6.1023e-10
-6.32184e-10
-6.54134e-10
-6.76085e-10
-6.98037e-10
-7.19996e-10
-7.41949e-10
-7.63891e-10
-7.85848e-10
-8.07793e-10
-8.29752e-10
-8.51709e-10
-8.73652e-10
-8.95609e-10
-9.17564e-10
-9.39511e-10
-9.61457e-10
-9.83421e-10
-1.00537e-09
-1.02732e-09
-1.04929e-09
-1.07123e-09
-1.09318e-09
-1.11515e-09
-1.13712e-09
-1.15909e-09
-1.18106e-09
-1.20304e-09
-1.22503e-09
-1.24705e-09
-1.26908e-09
-1.29115e-09
-1.31328e-09
-1.33548e-09
-1.35777e-09
-1.38021e-09
-1.40283e-09
-1.42575e-09
-1.44908e-09
-1.47296e-09
-1.49766e-09
-1.52348e-09
-1.55088e-09
-1.58056e-09
-1.61332e-09
-1.65032e-09
-1.69342e-09
-1.7446e-09
-1.80677e-09
-1.88353e-09
-1.97919e-09
-2.09456e-09
-2.23671e-09
1.25767e-10
-2.32255e-11
-3.78508e-11
-5.9593e-11
-8.22504e-11
-1.0475e-10
-1.27008e-10
-1.49174e-10
-1.71198e-10
-1.93191e-10
-2.15164e-10
-2.37127e-10
-2.59065e-10
-2.8101e-10
-3.02944e-10
-3.24896e-10
-3.46836e-10
-3.68796e-10
-3.90727e-10
-4.12691e-10
-4.34642e-10
-4.56579e-10
-4.78549e-10
-5.00488e-10
-5.22417e-10
-5.44384e-10
-5.66336e-10
-5.88288e-10
-6.10246e-10
-6.3219e-10
-6.54146e-10
-6.76102e-10
-6.98051e-10
-7.1999e-10
-7.4194e-10
-7.63911e-10
-7.85846e-10
-8.07809e-10
-8.29753e-10
-8.51699e-10
-8.73653e-10
-8.95609e-10
-9.1756e-10
-9.39512e-10
-9.6148e-10
-9.83411e-10
-1.00538e-09
-1.02734e-09
-1.04927e-09
-1.07125e-09
-1.09321e-09
-1.11515e-09
-1.13711e-09
-1.15907e-09
-1.18106e-09
-1.20304e-09
-1.22505e-09
-1.24705e-09
-1.26909e-09
-1.29116e-09
-1.31327e-09
-1.33547e-09
-1.35776e-09
-1.38019e-09
-1.40284e-09
-1.42576e-09
-1.44908e-09
-1.473e-09
-1.4977e-09
-1.52356e-09
-1.55103e-09
-1.58076e-09
-1.61363e-09
-1.65095e-09
-1.69412e-09
-1.74557e-09
-1.80811e-09
-1.88537e-09
-1.98169e-09
-2.10084e-09
-2.24213e-09
-2.39153e-09
1.1526e-10
-2.82052e-11
-3.85091e-11
-5.96431e-11
-8.22898e-11
-1.04776e-10
-1.27027e-10
-1.49144e-10
-1.71208e-10
-1.93201e-10
-2.15168e-10
-2.37119e-10
-2.59055e-10
-2.81003e-10
-3.02958e-10
-3.2489e-10
-3.46844e-10
-3.68773e-10
-3.90738e-10
-4.12673e-10
-4.34618e-10
-4.56573e-10
-4.78508e-10
-5.00478e-10
-5.22449e-10
-5.44384e-10
-5.66338e-10
-5.88284e-10
-6.10228e-10
-6.32188e-10
-6.54134e-10
-6.76085e-10
-6.98031e-10
-7.19994e-10
-7.41957e-10
-7.6389e-10
-7.85853e-10
-8.07797e-10
-8.29744e-10
-8.51699e-10
-8.73654e-10
-8.95602e-10
-9.17555e-10
-9.39506e-10
-9.61457e-10
-9.83422e-10
-1.00537e-09
-1.02731e-09
-1.04929e-09
-1.07123e-09
-1.09318e-09
-1.11515e-09
-1.13712e-09
-1.15909e-09
-1.18106e-09
-1.20303e-09
-1.22501e-09
-1.24704e-09
-1.26906e-09
-1.29113e-09
-1.31328e-09
-1.33546e-09
-1.35775e-09
-1.38019e-09
-1.40281e-09
-1.42573e-09
-1.44908e-09
-1.47297e-09
-1.49771e-09
-1.52358e-09
-1.55108e-09
-1.58086e-09
-1.61382e-09
-1.65113e-09
-1.69455e-09
-1.74621e-09
-1.80899e-09
-1.88657e-09
-1.98331e-09
-2.10258e-09
-2.24212e-09
-2.41355e-09
-2.68394e-09
1.11116e-10
-2.25059e-11
-3.72263e-11
-5.957e-11
-8.23123e-11
-1.04773e-10
-1.27038e-10
-1.49186e-10
-1.71206e-10
-1.93201e-10
-2.15166e-10
-2.37121e-10
-2.59071e-10
-2.81008e-10
-3.02939e-10
-3.24902e-10
-3.46826e-10
-3.68794e-10
-3.90722e-10
-4.12682e-10
-4.34643e-10
-4.56588e-10
-4.7855e-10
-5.00483e-10
-5.22413e-10
-5.44383e-10
-5.66331e-10
-5.88285e-10
-6.1024e-10
-6.32185e-10
-6.5414e-10
-6.76098e-10
-6.98058e-10
-7.19995e-10
-7.41931e-10
-7.639e-10
-7.85841e-10
-8.07795e-10
-8.29748e-10
-8.517e-10
-8.73645e-10
-8.95606e-10
-9.17555e-10
-9.39512e-10
-9.61462e-10
-9.83413e-10
-1.00537e-09
-1.02733e-09
-1.04926e-09
-1.07123e-09
-1.0932e-09
-1.11515e-09
-1.1371e-09
-1.15906e-09
-1.18104e-09
-1.20303e-09
-1.22504e-09
-1.24703e-09
-1.26907e-09
-1.29114e-09
-1.31324e-09
-1.33544e-09
-1.35773e-09
-1.38016e-09
-1.4028e-09
-1.42572e-09
-1.44905e-09
-1.47296e-09
-1.49768e-09
-1.52356e-09
-1.55107e-09
-1.58086e-09
-1.61384e-09
-1.65125e-09
-1.69471e-09
-1.74647e-09
-1.8094e-09
-1.88715e-09
-1.98418e-09
-2.10511e-09
-2.25027e-09
-2.42343e-09
-2.68621e-09
1.06329e-10
-2.52463e-11
-3.76821e-11
-5.96211e-11
-8.23158e-11
-1.04806e-10
-1.27037e-10
-1.49167e-10
-1.71214e-10
-1.93197e-10
-2.15178e-10
-2.37121e-10
-2.5905e-10
-2.81013e-10
-3.0296e-10
-3.24887e-10
-3.46843e-10
-3.68779e-10
-3.90745e-10
-4.12684e-10
-4.34619e-10
-4.56568e-10
-4.78513e-10
-5.0048e-10
-5.22442e-10
-5.44388e-10
-5.66338e-10
-5.88284e-10
-6.10237e-10
-6.32192e-10
-6.54139e-10
-6.76085e-10
-6.98027e-10
-7.19987e-10
-7.41961e-10
-7.63901e-10
-7.85844e-10
-8.07794e-10
-8.29741e-10
-8.51687e-10
-8.73646e-10
-8.95584e-10
-9.17553e-10
-9.39491e-10
-9.6146e-10
-9.83411e-10
-1.00537e-09
-1.02731e-09
-1.04929e-09
-1.07124e-09
-1.09318e-09
-1.11514e-09
-1.13712e-09
-1.15909e-09
-1.18105e-09
-1.20301e-09
-1.22501e-09
-1.24703e-09
-1.26905e-09
-1.29111e-09
-1.31325e-09
-1.33542e-09
-1.35771e-09
-1.38014e-09
-1.40276e-09
-1.42567e-09
-1.449e-09
-1.4729e-09
-1.49762e-09
-1.52349e-09
-1.55099e-09
-1.58077e-09
-1.61374e-09
-1.65112e-09
-1.6946e-09
-1.74637e-09
-1.80931e-09
-1.88708e-09
-1.98415e-09
-2.10486e-09
-2.24762e-09
-2.42621e-09
-2.68802e-09
1.04769e-10
-2.51959e-11
-3.76673e-11
-5.9605e-11
-8.23153e-11
-1.04775e-10
-1.27047e-10
-1.49171e-10
-1.71212e-10
-1.93211e-10
-2.15159e-10
-2.37121e-10
-2.59072e-10
-2.80996e-10
-3.02944e-10
-3.24899e-10
-3.46826e-10
-3.68783e-10
-3.9072e-10
-4.1267e-10
-4.34639e-10
-4.56589e-10
-4.78539e-10
-5.0048e-10
-5.22421e-10
-5.44374e-10
-5.6633e-10
-5.88288e-10
-6.1023e-10
-6.3218e-10
-6.54138e-10
-6.76094e-10
-6.98053e-10
-7.20001e-10
-7.41925e-10
-7.63897e-10
-7.85842e-10
-8.07797e-10
-8.29751e-10
-8.51706e-10
-8.73647e-10
-8.95606e-10
-9.17551e-10
-9.3951e-10
-9.61459e-10
-9.83408e-10
-1.00537e-09
-1.02733e-09
-1.04926e-09
-1.07122e-09
-1.09319e-09
-1.11515e-09
-1.13709e-09
-1.15906e-09
-1.18104e-09
-1.20302e-09
-1.22501e-09
-1.24701e-09
-1.26905e-09
-1.29111e-09
-1.31321e-09
-1.3354e-09
-1.35768e-09
-1.38011e-09
-1.40273e-09
-1.42563e-09
-1.44894e-09
-1.47282e-09
-1.49752e-09
-1.52337e-09
-1.55082e-09
-1.58057e-09
-1.61348e-09
-1.65082e-09
-1.69421e-09
-1.74589e-09
-1.80873e-09
-1.88636e-09
-1.98327e-09
-2.10378e-09
-2.24629e-09
-2.42581e-09
-2.68756e-09
1.05501e-10
-2.27111e-11
-3.72805e-11
-5.95884e-11
-8.231e-11
-1.048e-10
-1.27027e-10
-1.49172e-10
-1.71207e-10
-1.93187e-10
-2.15176e-10
-2.37119e-10
-2.59054e-10
-2.81018e-10
-3.02951e-10
-3.24894e-10
-3.46835e-10
-3.68788e-10
-3.90748e-10
-4.1269e-10
-4.34621e-10
-4.5657e-10
-4.78523e-10
-5.00481e-10
-5.22431e-10
-5.44388e-10
-5.66341e-10
-5.88281e-10
-6.10244e-10
-6.32197e-10
-6.54141e-10
-6.76088e-10
-6.98036e-10
-7.19983e-10
-7.41964e-10
-7.63894e-10
-7.85844e-10
-8.07796e-10
-8.29746e-10
-8.51683e-10
-8.73649e-10
-8.95601e-10
-9.17552e-10
-9.39503e-10
-9.61459e-10
-9.83416e-10
-1.00536e-09
-1.02732e-09
-1.04928e-09
-1.07124e-09
-1.09318e-09
-1.11514e-09
-1.13711e-09
-1.15907e-09
-1.18104e-09
-1.20301e-09
-1.225e-09
-1.24701e-09
-1.26903e-09
-1.2911e-09
-1.31321e-09
-1.33538e-09
-1.35766e-09
-1.38007e-09
-1.40267e-09
-1.42557e-09
-1.44886e-09
-1.47272e-09
-1.49738e-09
-1.52319e-09
-1.55059e-09
-1.58026e-09
-1.61309e-09
-1.6503e-09
-1.69354e-09
-1.74504e-09
-1.80764e-09
-1.88496e-09
-1.98152e-09
-2.10181e-09
-2.24698e-09
-2.42255e-09
-2.68463e-09
1.08803e-10
-2.80951e-11
-3.84936e-11
-5.96506e-11
-8.22906e-11
-1.04749e-10
-1.27036e-10
-1.49141e-10
-1.71204e-10
-1.93202e-10
-2.15153e-10
-2.37122e-10
-2.59069e-10
-2.80988e-10
-3.0295e-10
-3.2489e-10
-3.46833e-10
-3.68773e-10
-3.90718e-10
-4.12668e-10
-4.34634e-10
-4.5658e-10
-4.78532e-10
-5.00479e-10
-5.22431e-10
-5.44379e-10
-5.66324e-10
-5.88286e-10
-6.10227e-10
-6.32176e-10
-6.54134e-10
-6.76088e-10
-6.98042e-10
-7.20002e-10
-7.41928e-10
-7.6389e-10
-7.85858e-10
-8.07796e-10
-8.29751e-10
-8.51703e-10
-8.73647e-10
-8.95604e-10
-9.17553e-10
-9.39507e-10
-9.61457e-10
-9.83414e-10
-1.00537e-09
-1.02732e-09
-1.04926e-09
-1.07121e-09
-1.09318e-09
-1.11514e-09
-1.13708e-09
-1.15905e-09
-1.18102e-09
-1.20301e-09
-1.22499e-09
-1.24699e-09
-1.26902e-09
-1.29107e-09
-1.31317e-09
-1.33535e-09
-1.35762e-09
-1.38002e-09
-1.40262e-09
-1.42549e-09
-1.44876e-09
-1.47259e-09
-1.49721e-09
-1.52296e-09
-1.5503e-09
-1.57987e-09
-1.61256e-09
-1.6496e-09
-1.69263e-09
-1.74381e-09
-1.80609e-09
-1.88295e-09
-1.97889e-09
-2.09745e-09
-2.23598e-09
-2.41409e-09
-2.68022e-09
1.19982e-10
-2.33422e-11
-3.78645e-11
-5.9578e-11
-8.2252e-11
-1.04753e-10
-1.27005e-10
-1.49147e-10
-1.71197e-10
-1.93184e-10
-2.15171e-10
-2.37114e-10
-2.59054e-10
-2.81016e-10
-3.02948e-10
-3.24897e-10
-3.46834e-10
-3.68793e-10
-3.90748e-10
-4.12692e-10
-4.34625e-10
-4.5658e-10
-4.78529e-10
-5.00479e-10
-5.22432e-10
-5.44383e-10
-5.66345e-10
-5.88285e-10
-6.10244e-10
-6.32198e-10
-6.54146e-10
-6.76091e-10
-6.98048e-10
-7.19984e-10
-7.41958e-10
-7.63907e-10
-7.85838e-10
-8.07804e-10
-8.2976e-10
-8.51699e-10
-8.73658e-10
-8.95605e-10
-9.17568e-10
-9.39508e-10
-9.6147e-10
-9.83412e-10
-1.00537e-09
-1.02732e-09
-1.04927e-09
-1.07124e-09
-1.09318e-09
-1.11514e-09
-1.13711e-09
-1.15906e-09
-1.18103e-09
-1.203e-09
-1.22499e-09
-1.24699e-09
-1.26901e-09
-1.29107e-09
-1.31317e-09
-1.33533e-09
-1.35759e-09
-1.37998e-09
-1.40256e-09
-1.42541e-09
-1.44865e-09
-1.47244e-09
-1.49701e-09
-1.52276e-09
-1.54993e-09
-1.57937e-09
-1.6119e-09
-1.64872e-09
-1.69146e-09
-1.74227e-09
-1.80409e-09
-1.88034e-09
-1.97554e-09
-2.09351e-09
-2.23398e-09
-2.39581e-09
-2.67915e-09
1.46571e-10
-2.95887e-11
-4.02061e-11
-5.95797e-11
-8.21858e-11
-1.04693e-10
-1.26982e-10
-1.49117e-10
-1.71178e-10
-1.93182e-10
-2.15146e-10
-2.37114e-10
-2.59059e-10
-2.80987e-10
-3.02945e-10
-3.24888e-10
-3.46829e-10
-3.68774e-10
-3.90718e-10
-4.12669e-10
-4.34628e-10
-4.56575e-10
-4.78523e-10
-5.00481e-10
-5.22428e-10
-5.44382e-10
-5.66325e-10
-5.88282e-10
-6.10232e-10
-6.32177e-10
-6.54129e-10
-6.76086e-10
-6.98038e-10
-7.2e-10
-7.41934e-10
-7.63886e-10
-7.85853e-10
-8.078e-10
-8.29742e-10
-8.51708e-10
-8.73653e-10
-8.95602e-10
-9.17555e-10
-9.39506e-10
-9.61454e-10
-9.83412e-10
-1.00536e-09
-1.02731e-09
-1.04927e-09
-1.07121e-09
-1.09318e-09
-1.11513e-09
-1.13708e-09
-1.15905e-09
-1.18102e-09
-1.203e-09
-1.22497e-09
-1.24697e-09
-1.26899e-09
-1.29103e-09
-1.31313e-09
-1.33529e-09
-1.35754e-09
-1.37992e-09
-1.40248e-09
-1.42531e-09
-1.44852e-09
-1.47226e-09
-1.49678e-09
-1.52233e-09
-1.54951e-09
-1.5788e-09
-1.61111e-09
-1.64765e-09
-1.69002e-09
-1.74036e-09
-1.80168e-09
-1.8771e-09
-1.97136e-09
-2.08531e-09
-2.22591e-09
-2.36679e-09
-1.24795e-11
-4.00329e-11
-5.93194e-11
-8.20897e-11
-1.04664e-10
-1.26961e-10
-1.49109e-10
-1.71172e-10
-1.93177e-10
-2.15154e-10
-2.37106e-10
-2.59054e-10
-2.8101e-10
-3.02944e-10
-3.24894e-10
-3.46841e-10
-3.68787e-10
-3.9074e-10
-4.12688e-10
-4.34632e-10
-4.5658e-10
-4.78534e-10
-5.00478e-10
-5.22435e-10
-5.44382e-10
-5.66342e-10
-5.88288e-10
-6.10238e-10
-6.32195e-10
-6.54148e-10
-6.76093e-10
-6.98045e-10
-7.19989e-10
-7.41954e-10
-7.63905e-10
-7.85846e-10
-8.07802e-10
-8.29762e-10
-8.51706e-10
-8.7366e-10
-8.95615e-10
-9.17564e-10
-9.39513e-10
-9.61468e-10
-9.83412e-10
-1.00537e-09
-1.02732e-09
-1.04927e-09
-1.07123e-09
-1.09318e-09
-1.11514e-09
-1.1371e-09
-1.15905e-09
-1.18102e-09
-1.20299e-09
-1.22497e-09
-1.24697e-09
-1.26898e-09
-1.29103e-09
-1.31312e-09
-1.33527e-09
-1.35751e-09
-1.37987e-09
-1.40241e-09
-1.42522e-09
-1.44839e-09
-1.4721e-09
-1.49653e-09
-1.52207e-09
-1.54905e-09
-1.57818e-09
-1.61027e-09
-1.6465e-09
-1.68845e-09
-1.73828e-09
-1.79913e-09
-1.87355e-09
-1.9671e-09
-2.07917e-09
-2.23659e-09
-9.60421e-15
-3.91751e-11
-5.89545e-11
-8.19201e-11
-1.0456e-10
-1.26896e-10
-1.49069e-10
-1.71143e-10
-1.93157e-10
-2.15133e-10
-2.37102e-10
-2.59052e-10
-2.80983e-10
-3.02941e-10
-3.24889e-10
-3.46827e-10
-3.6878e-10
-3.90723e-10
-4.12675e-10
-4.34624e-10
-4.56578e-10
-4.78521e-10
-5.00483e-10
-5.2243e-10
-5.44381e-10
-5.66329e-10
-5.88282e-10
-6.10239e-10
-6.32181e-10
-6.54127e-10
-6.76092e-10
-6.98037e-10
-7.19994e-10
-7.41939e-10
-7.6389e-10
-7.85847e-10
-8.07802e-10
-8.29746e-10
-8.51706e-10
-8.73654e-10
-8.95602e-10
-9.17558e-10
-9.39505e-10
-9.61452e-10
-9.83409e-10
-1.00536e-09
-1.02731e-09
-1.04927e-09
-1.07122e-09
-1.09317e-09
-1.11512e-09
-1.13708e-09
-1.15905e-09
-1.18101e-09
-1.20298e-09
-1.22496e-09
-1.24694e-09
-1.26896e-09
-1.291e-09
-1.31308e-09
-1.33522e-09
-1.35744e-09
-1.37979e-09
-1.40232e-09
-1.42509e-09
-1.44822e-09
-1.47185e-09
-1.49623e-09
-1.5216e-09
-1.54848e-09
-1.57739e-09
-1.60918e-09
-1.64502e-09
-1.68644e-09
-1.73567e-09
-1.79501e-09
-1.86863e-09
-1.9607e-09
-2.07018e-09
-2.24178e-09
-1.59562e-11
-3.14323e-11
-5.6852e-11
-8.10691e-11
-1.04145e-10
-1.26674e-10
-1.48937e-10
-1.71054e-10
-1.93104e-10
-2.15105e-10
-2.37078e-10
-2.59038e-10
-2.80986e-10
-3.02942e-10
-3.24884e-10
-3.4683e-10
-3.68781e-10
-3.90729e-10
-4.12675e-10
-4.34625e-10
-4.56581e-10
-4.7853e-10
-5.00473e-10
-5.22432e-10
-5.44379e-10
-5.66337e-10
-5.88287e-10
-6.10234e-10
-6.32181e-10
-6.54141e-10
-6.76091e-10
-6.98041e-10
-7.19986e-10
-7.41948e-10
-7.639e-10
-7.85849e-10
-8.07797e-10
-8.29749e-10
-8.51704e-10
-8.73658e-10
-8.95606e-10
-9.17559e-10
-9.39513e-10
-9.61463e-10
-9.83423e-10
-1.00537e-09
-1.02733e-09
-1.04929e-09
-1.07124e-09
-1.0932e-09
-1.11516e-09
-1.13713e-09
-1.1591e-09
-1.18107e-09
-1.20306e-09
-1.22506e-09
-1.24707e-09
-1.2691e-09
-1.29117e-09
-1.31329e-09
-1.33547e-09
-1.35774e-09
-1.38013e-09
-1.40269e-09
-1.42551e-09
-1.44867e-09
-1.47232e-09
-1.49665e-09
-1.52199e-09
-1.54856e-09
-1.57717e-09
-1.60838e-09
-1.64328e-09
-1.68328e-09
-1.73021e-09
-1.78734e-09
-1.85782e-09
-1.94729e-09
-2.06047e-09
-2.19614e-09
1.44932e-10
-2.2894e-11
-3.32089e-11
-5.74869e-11
-8.134e-11
-1.04293e-10
-1.26761e-10
-1.48996e-10
-1.71094e-10
-1.93128e-10
-2.15125e-10
-2.37087e-10
-2.59042e-10
-2.81001e-10
-3.02939e-10
-3.24893e-10
-3.46845e-10
-3.68784e-10
-3.90731e-10
-4.12686e-10
-4.34634e-10
-4.56577e-10
-4.78532e-10
-5.0049e-10
-5.22437e-10
-5.4439e-10
-5.66336e-10
-5.88287e-10
-6.10244e-10
-6.32202e-10
-6.54141e-10
-6.76095e-10
-6.98048e-10
-7.20003e-10
-7.41948e-10
-7.63892e-10
-7.8585e-10
-8.07812e-10
-8.29757e-10
-8.51705e-10
-8.73664e-10
-8.95616e-10
-9.17563e-10
-9.39513e-10
-9.61467e-10
-9.83428e-10
-1.00538e-09
-1.02733e-09
-1.04929e-09
-1.07124e-09
-1.09322e-09
-1.11516e-09
-1.13713e-09
-1.1591e-09
-1.18108e-09
-1.20306e-09
-1.22505e-09
-1.24707e-09
-1.26912e-09
-1.29119e-09
-1.3133e-09
-1.33548e-09
-1.35775e-09
-1.38016e-09
-1.40275e-09
-1.42559e-09
-1.4488e-09
-1.47249e-09
-1.49692e-09
-1.52235e-09
-1.54926e-09
-1.57796e-09
-1.60949e-09
-1.64487e-09
-1.68557e-09
-1.73384e-09
-1.79191e-09
-1.86352e-09
-1.95392e-09
-2.06836e-09
-2.19857e-09
-2.31421e-09
1.3082e-10
-1.25646e-11
-3.39022e-11
-5.79123e-11
-8.15221e-11
-1.04373e-10
-1.26804e-10
-1.49006e-10
-1.71104e-10
-1.93136e-10
-2.15121e-10
-2.37099e-10
-2.59046e-10
-2.80987e-10
-3.02952e-10
-3.24887e-10
-3.46825e-10
-3.68783e-10
-3.90732e-10
-4.12673e-10
-4.34628e-10
-4.56585e-10
-4.7853e-10
-5.00472e-10
-5.22432e-10
-5.44378e-10
-5.66339e-10
-5.88287e-10
-6.10231e-10
-6.32178e-10
-6.54144e-10
-6.76095e-10
-6.98035e-10
-7.19989e-10
-7.41945e-10
-7.63906e-10
-7.85855e-10
-8.07784e-10
-8.29751e-10
-8.5171e-10
-8.73656e-10
-8.95599e-10
-9.17563e-10
-9.39516e-10
-9.61466e-10
-9.83417e-10
-1.00537e-09
-1.02733e-09
-1.04929e-09
-1.07125e-09
-1.09319e-09
-1.11516e-09
-1.13712e-09
-1.1591e-09
-1.18107e-09
-1.20305e-09
-1.22506e-09
-1.24707e-09
-1.2691e-09
-1.29117e-09
-1.31329e-09
-1.33549e-09
-1.35777e-09
-1.38017e-09
-1.40277e-09
-1.42564e-09
-1.44886e-09
-1.47262e-09
-1.4971e-09
-1.52262e-09
-1.54964e-09
-1.57859e-09
-1.61041e-09
-1.64618e-09
-1.68743e-09
-1.73626e-09
-1.79555e-09
-1.8684e-09
-1.9601e-09
-2.07595e-09
-2.21899e-09
-2.32815e-09
-2.57353e-09
1.46939e-10
-1.33684e-11
-3.48585e-11
-5.83437e-11
-8.17048e-11
-1.04458e-10
-1.26859e-10
-1.49051e-10
-1.71127e-10
-1.9315e-10
-2.15137e-10
-2.37105e-10
-2.59053e-10
-2.80994e-10
-3.02939e-10
-3.249e-10
-3.46849e-10
-3.68783e-10
-3.90734e-10
-4.1269e-10
-4.34633e-10
-4.56566e-10
-4.7853e-10
-5.00499e-10
-5.22436e-10
-5.44387e-10
-5.66336e-10
-5.8828e-10
-6.1025e-10
-6.32203e-10
-6.54138e-10
-6.76097e-10
-6.98049e-10
-7.20005e-10
-7.41947e-10
-7.63894e-10
-7.85843e-10
-8.07822e-10
-8.2976e-10
-8.51695e-10
-8.73666e-10
-8.95619e-10
-9.17558e-10
-9.39516e-10
-9.61464e-10
-9.83428e-10
-1.00538e-09
-1.02733e-09
-1.04928e-09
-1.07124e-09
-1.09321e-09
-1.11516e-09
-1.13713e-09
-1.15909e-09
-1.18108e-09
-1.20305e-09
-1.22505e-09
-1.24706e-09
-1.26911e-09
-1.29119e-09
-1.3133e-09
-1.33548e-09
-1.35776e-09
-1.3802e-09
-1.4028e-09
-1.42569e-09
-1.44894e-09
-1.47272e-09
-1.49729e-09
-1.5229e-09
-1.55012e-09
-1.57916e-09
-1.61125e-09
-1.64742e-09
-1.68921e-09
-1.73874e-09
-1.79904e-09
-1.87288e-09
-1.96573e-09
-2.08246e-09
-2.22626e-09
-2.284e-09
-2.6066e-09
1.05619e-10
-9.2402e-12
-3.51133e-11
-5.87184e-11
-8.18912e-11
-1.04552e-10
-1.26911e-10
-1.49092e-10
-1.71147e-10
-1.93173e-10
-2.15151e-10
-2.37113e-10
-2.59054e-10
-2.81006e-10
-3.02954e-10
-3.2489e-10
-3.46827e-10
-3.68783e-10
-3.90737e-10
-4.12679e-10
-4.34629e-10
-4.56596e-10
-4.7853e-10
-5.00473e-10
-5.22441e-10
-5.44382e-10
-5.66338e-10
-5.88289e-10
-6.10232e-10
-6.32185e-10
-6.54146e-10
-6.76093e-10
-6.98046e-10
-7.19991e-10
-7.41945e-10
-7.63904e-10
-7.85863e-10
-8.07793e-10
-8.29756e-10
-8.51714e-10
-8.7366e-10
-8.95603e-10
-9.17571e-10
-9.39516e-10
-9.61465e-10
-9.83423e-10
-1.00537e-09
-1.02732e-09
-1.04929e-09
-1.07124e-09
-1.09319e-09
-1.11517e-09
-1.13712e-09
-1.15909e-09
-1.18106e-09
-1.20306e-09
-1.22505e-09
-1.24706e-09
-1.26909e-09
-1.29117e-09
-1.31329e-09
-1.33549e-09
-1.35778e-09
-1.3802e-09
-1.40283e-09
-1.42571e-09
-1.44898e-09
-1.47283e-09
-1.49741e-09
-1.5231e-09
-1.55024e-09
-1.57965e-09
-1.61196e-09
-1.64843e-09
-1.69066e-09
-1.74074e-09
-1.80115e-09
-1.87647e-09
-1.97065e-09
-2.08943e-09
-2.23743e-09
-2.33808e-09
-2.62898e-09
8.86303e-11
-1.20095e-11
-3.65515e-11
-5.92289e-11
-8.21199e-11
-1.0468e-10
-1.27016e-10
-1.49136e-10
-1.71206e-10
-1.93197e-10
-2.1517e-10
-2.37142e-10
-2.59075e-10
-2.80998e-10
-3.02955e-10
-3.24898e-10
-3.46858e-10
-3.68799e-10
-3.9074e-10
-4.12689e-10
-4.34638e-10
-4.56564e-10
-4.78553e-10
-5.0051e-10
-5.22431e-10
-5.44387e-10
-5.66345e-10
-5.88283e-10
-6.10261e-10
-6.32202e-10
-6.54147e-10
-6.76098e-10
-6.98063e-10
-7.20009e-10
-7.4195e-10
-7.63896e-10
-7.85861e-10
-8.07821e-10
-8.29766e-10
-8.51704e-10
-8.73681e-10
-8.95623e-10
-9.17555e-10
-9.3953e-10
-9.61476e-10
-9.83432e-10
-1.00539e-09
-1.02734e-09
-1.04928e-09
-1.07125e-09
-1.0932e-09
-1.11516e-09
-1.13713e-09
-1.15909e-09
-1.18107e-09
-1.20304e-09
-1.22506e-09
-1.24707e-09
-1.26911e-09
-1.29118e-09
-1.3133e-09
-1.33548e-09
-1.35778e-09
-1.38021e-09
-1.40283e-09
-1.42575e-09
-1.44904e-09
-1.4729e-09
-1.49754e-09
-1.52328e-09
-1.55058e-09
-1.58006e-09
-1.61261e-09
-1.64935e-09
-1.69198e-09
-1.74257e-09
-1.80392e-09
-1.87988e-09
-1.97487e-09
-2.09396e-09
-2.24497e-09
-2.39798e-09
-2.63411e-09
8.02128e-11
-1.5666e-11
-3.77023e-11
-5.95497e-11
-8.22758e-11
-1.04757e-10
-1.27053e-10
-1.49162e-10
-1.71214e-10
-1.93211e-10
-2.15181e-10
-2.37121e-10
-2.5907e-10
-2.8102e-10
-3.02963e-10
-3.24899e-10
-3.46833e-10
-3.68782e-10
-3.9074e-10
-4.12682e-10
-4.34626e-10
-4.56593e-10
-4.78517e-10
-5.00471e-10
-5.22449e-10
-5.44384e-10
-5.66334e-10
-5.88292e-10
-6.10229e-10
-6.32192e-10
-6.54145e-10
-6.76099e-10
-6.98037e-10
-7.19993e-10
-7.4195e-10
-7.63902e-10
-7.85854e-10
-8.07807e-10
-8.29763e-10
-8.51703e-10
-8.73662e-10
-8.95615e-10
-9.17569e-10
-9.39522e-10
-9.61453e-10
-9.83423e-10
-1.00537e-09
-1.02733e-09
-1.0493e-09
-1.07123e-09
-1.0932e-09
-1.11516e-09
-1.13713e-09
-1.15909e-09
-1.18105e-09
-1.20305e-09
-1.22503e-09
-1.24704e-09
-1.26909e-09
-1.29116e-09
-1.31329e-09
-1.33548e-09
-1.35777e-09
-1.3802e-09
-1.40284e-09
-1.42574e-09
-1.44906e-09
-1.47292e-09
-1.49761e-09
-1.5234e-09
-1.55078e-09
-1.5804e-09
-1.61309e-09
-1.65005e-09
-1.69298e-09
-1.74397e-09
-1.80586e-09
-1.88246e-09
-1.97794e-09
-2.09684e-09
-2.24738e-09
-2.42242e-09
-2.64066e-09
5.2014e-11
-1.42593e-11
-3.71252e-11
-5.96877e-11
-8.23623e-11
-1.04824e-10
-1.27084e-10
-1.49191e-10
-1.71231e-10
-1.93226e-10
-2.15189e-10
-2.37146e-10
-2.59091e-10
-2.81016e-10
-3.02953e-10
-3.24908e-10
-3.46855e-10
-3.68804e-10
-3.90741e-10
-4.12686e-10
-4.34636e-10
-4.56584e-10
-4.78555e-10
-5.005e-10
-5.22427e-10
-5.44388e-10
-5.66344e-10
-5.88287e-10
-6.10261e-10
-6.32197e-10
-6.54153e-10
-6.76091e-10
-6.98065e-10
-7.20008e-10
-7.41945e-10
-7.63903e-10
-7.85863e-10
-8.07804e-10
-8.29758e-10
-8.51716e-10
-8.73662e-10
-8.95611e-10
-9.17559e-10
-9.39523e-10
-9.61477e-10
-9.8343e-10
-1.00538e-09
-1.02734e-09
-1.04928e-09
-1.07124e-09
-1.09321e-09
-1.11516e-09
-1.13712e-09
-1.15908e-09
-1.18106e-09
-1.20305e-09
-1.22506e-09
-1.24706e-09
-1.2691e-09
-1.29116e-09
-1.31327e-09
-1.33547e-09
-1.35777e-09
-1.38019e-09
-1.40283e-09
-1.42576e-09
-1.44906e-09
-1.47298e-09
-1.49765e-09
-1.52349e-09
-1.55091e-09
-1.58062e-09
-1.61343e-09
-1.65058e-09
-1.69371e-09
-1.74504e-09
-1.80734e-09
-1.88437e-09
-1.98049e-09
-2.10077e-09
-2.25308e-09
-2.47796e-09
-2.65112e-09
4.98644e-11
-1.68917e-11
-3.79622e-11
-5.98341e-11
-8.24363e-11
-1.04862e-10
-1.27115e-10
-1.49193e-10
-1.71242e-10
-1.93228e-10
-2.15198e-10
-2.37117e-10
-2.59079e-10
-2.8102e-10
-3.02979e-10
-3.24891e-10
-3.46852e-10
-3.68778e-10
-3.90737e-10
-4.12689e-10
-4.34632e-10
-4.56579e-10
-4.78521e-10
-5.00477e-10
-5.2245e-10
-5.44389e-10
-5.66327e-10
-5.88294e-10
-6.10232e-10
-6.32196e-10
-6.54147e-10
-6.76101e-10
-6.98034e-10
-7.19998e-10
-7.41961e-10
-7.63889e-10
-7.85857e-10
-8.07802e-10
-8.29756e-10
-8.51709e-10
-8.73659e-10
-8.95609e-10
-9.17561e-10
-9.39522e-10
-9.61468e-10
-9.83424e-10
-1.00536e-09
-1.02732e-09
-1.0493e-09
-1.07124e-09
-1.09319e-09
-1.11515e-09
-1.13713e-09
-1.15909e-09
-1.18106e-09
-1.20304e-09
-1.22501e-09
-1.24702e-09
-1.26908e-09
-1.29115e-09
-1.31328e-09
-1.33546e-09
-1.35775e-09
-1.38018e-09
-1.40281e-09
-1.42572e-09
-1.44906e-09
-1.47294e-09
-1.49767e-09
-1.5235e-09
-1.55099e-09
-1.58072e-09
-1.61362e-09
-1.65088e-09
-1.69417e-09
-1.7457e-09
-1.80831e-09
-1.88564e-09
-1.98207e-09
-2.10211e-09
-2.25348e-09
-2.48098e-09
-2.6589e-09
4.89601e-11
-1.54295e-11
-3.73235e-11
-5.98348e-11
-8.24814e-11
-1.04889e-10
-1.27118e-10
-1.49232e-10
-1.71241e-10
-1.93239e-10
-2.1518e-10
-2.37151e-10
-2.59095e-10
-2.81017e-10
-3.02946e-10
-3.2491e-10
-3.4685e-10
-3.68805e-10
-3.90732e-10
-4.12683e-10
-4.34632e-10
-4.56601e-10
-4.7855e-10
-5.00486e-10
-5.22427e-10
-5.44376e-10
-5.66353e-10
-5.88289e-10
-6.10254e-10
-6.32193e-10
-6.54145e-10
-6.76092e-10
-6.98065e-10
-7.20008e-10
-7.4194e-10
-7.639e-10
-7.85857e-10
-8.07801e-10
-8.29754e-10
-8.51704e-10
-8.73657e-10
-8.95607e-10
-9.17561e-10
-9.39516e-10
-9.6146e-10
-9.83422e-10
-1.00538e-09
-1.02734e-09
-1.04927e-09
-1.07123e-09
-1.09321e-09
-1.11516e-09
-1.13711e-09
-1.15907e-09
-1.18104e-09
-1.20304e-09
-1.22505e-09
-1.24704e-09
-1.26908e-09
-1.29114e-09
-1.31324e-09
-1.33545e-09
-1.35773e-09
-1.38016e-09
-1.40279e-09
-1.42572e-09
-1.44902e-09
-1.47294e-09
-1.49763e-09
-1.5235e-09
-1.55096e-09
-1.58073e-09
-1.61366e-09
-1.65099e-09
-1.69435e-09
-1.74599e-09
-1.80872e-09
-1.88625e-09
-1.98292e-09
-2.10384e-09
-2.25535e-09
-2.48423e-09
-2.6638e-09
4.80937e-11
-1.64071e-11
-3.76987e-11
-5.98959e-11
-8.24918e-11
-1.0491e-10
-1.27135e-10
-1.49201e-10
-1.71248e-10
-1.93239e-10
-2.15203e-10
-2.3713e-10
-2.59082e-10
-2.81026e-10
-3.02978e-10
-3.24888e-10
-3.46861e-10
-3.68778e-10
-3.90744e-10
-4.12694e-10
-4.3463e-10
-4.56568e-10
-4.78523e-10
-5.00492e-10
-5.2245e-10
-5.444e-10
-5.66325e-10
-5.88295e-10
-6.10243e-10
-6.322e-10
-6.54152e-10
-6.76098e-10
-6.98035e-10
-7.19995e-10
-7.41962e-10
-7.63891e-10
-7.85866e-10
-8.07794e-10
-8.29751e-10
-8.51702e-10
-8.73658e-10
-8.95599e-10
-9.17558e-10
-9.39515e-10
-9.6147e-10
-9.83419e-10
-1.00537e-09
-1.02732e-09
-1.0493e-09
-1.07125e-09
-1.09318e-09
-1.11515e-09
-1.13713e-09
-1.15909e-09
-1.18106e-09
-1.20302e-09
-1.225e-09
-1.24702e-09
-1.26906e-09
-1.29113e-09
-1.31325e-09
-1.33542e-09
-1.35771e-09
-1.38013e-09
-1.40275e-09
-1.42566e-09
-1.44898e-09
-1.47286e-09
-1.49758e-09
-1.52341e-09
-1.55088e-09
-1.58063e-09
-1.61356e-09
-1.65085e-09
-1.69424e-09
-1.74588e-09
-1.80866e-09
-1.88617e-09
-1.98285e-09
-2.10358e-09
-2.25538e-09
-2.48457e-09
-2.6656e-09
4.80658e-11
-1.63977e-11
-3.76987e-11
-5.98819e-11
-8.24971e-11
-1.049e-10
-1.27131e-10
-1.49231e-10
-1.71245e-10
-1.93237e-10
-2.15186e-10
-2.37144e-10
-2.59095e-10
-2.81015e-10
-3.02943e-10
-3.24899e-10
-3.46851e-10
-3.688e-10
-3.90718e-10
-4.12677e-10
-4.34638e-10
-4.56607e-10
-4.78547e-10
-5.00478e-10
-5.2243e-10
-5.44374e-10
-5.66348e-10
-5.88291e-10
-6.10241e-10
-6.3219e-10
-6.54137e-10
-6.76098e-10
-6.98057e-10
-7.19995e-10
-7.41948e-10
-7.63908e-10
-7.85839e-10
-8.07801e-10
-8.29749e-10
-8.51708e-10
-8.73649e-10
-8.95611e-10
-9.17555e-10
-9.39517e-10
-9.61465e-10
-9.83421e-10
-1.00537e-09
-1.02733e-09
-1.04927e-09
-1.07122e-09
-1.0932e-09
-1.11515e-09
-1.1371e-09
-1.15907e-09
-1.18103e-09
-1.20303e-09
-1.22503e-09
-1.24702e-09
-1.26905e-09
-1.29111e-09
-1.31321e-09
-1.33541e-09
-1.35768e-09
-1.3801e-09
-1.40272e-09
-1.42562e-09
-1.44891e-09
-1.47279e-09
-1.49746e-09
-1.52329e-09
-1.55072e-09
-1.58041e-09
-1.61329e-09
-1.65054e-09
-1.69384e-09
-1.74538e-09
-1.80804e-09
-1.88543e-09
-1.98196e-09
-2.10243e-09
-2.25412e-09
-2.48326e-09
-2.66467e-09
4.89426e-11
-1.55752e-11
-3.73551e-11
-5.9846e-11
-8.24701e-11
-1.04901e-10
-1.27113e-10
-1.49217e-10
-1.71228e-10
-1.93234e-10
-2.15196e-10
-2.37137e-10
-2.59081e-10
-2.81036e-10
-3.02965e-10
-3.24893e-10
-3.46862e-10
-3.68786e-10
-3.90742e-10
-4.12697e-10
-4.34629e-10
-4.56569e-10
-4.78525e-10
-5.00492e-10
-5.22449e-10
-5.444e-10
-5.66331e-10
-5.88291e-10
-6.10239e-10
-6.32202e-10
-6.54161e-10
-6.76099e-10
-6.98041e-10
-7.19991e-10
-7.41948e-10
-7.639e-10
-7.85874e-10
-8.07799e-10
-8.29749e-10
-8.51696e-10
-8.73659e-10
-8.95609e-10
-9.17558e-10
-9.39514e-10
-9.61466e-10
-9.83422e-10
-1.00537e-09
-1.02732e-09
-1.04929e-09
-1.07125e-09
-1.09318e-09
-1.11515e-09
-1.13713e-09
-1.15908e-09
-1.18106e-09
-1.20302e-09
-1.22499e-09
-1.24702e-09
-1.26903e-09
-1.2911e-09
-1.31322e-09
-1.33538e-09
-1.35765e-09
-1.38005e-09
-1.40266e-09
-1.42555e-09
-1.44884e-09
-1.47268e-09
-1.49732e-09
-1.5231e-09
-1.55048e-09
-1.58011e-09
-1.61289e-09
-1.65e-09
-1.69315e-09
-1.74448e-09
-1.80693e-09
-1.884e-09
-1.9802e-09
-2.10055e-09
-2.2519e-09
-2.48032e-09
-2.66146e-09
4.98404e-11
-1.68129e-11
-3.79595e-11
-5.98267e-11
-8.24278e-11
-1.04861e-10
-1.27102e-10
-1.49203e-10
-1.71232e-10
-1.93223e-10
-2.15194e-10
-2.37126e-10
-2.59084e-10
-2.81006e-10
-3.02949e-10
-3.24892e-10
-3.46847e-10
-3.68794e-10
-3.90718e-10
-4.12674e-10
-4.34634e-10
-4.56599e-10
-4.78542e-10
-5.00481e-10
-5.22428e-10
-5.44377e-10
-5.66342e-10
-5.88295e-10
-6.10246e-10
-6.32187e-10
-6.54123e-10
-6.76099e-10
-6.98046e-10
-7.20012e-10
-7.41945e-10
-7.63902e-10
-7.8585e-10
-8.07802e-10
-8.29747e-10
-8.51713e-10
-8.73656e-10
-8.95611e-10