/*--------------------------------*- C++ -*----------------------------------*\
| =========                 |                                                 |
| \\      /  F ield         | OpenFOAM: The Open Source CFD Toolbox           |
|  \\    /   O peration     | Version:  v1906                                 |
|   \\  /    A nd           | Web:      www.OpenFOAM.com                      |
|    \\/     M anipulation  |                                                 |
\*---------------------------------------------------------------------------*/
FoamFile
{
    version     2.0;
    format      ascii;
    class       volScalarField;
    location    "61.5";
    object      p;
}
// * * * * * * * * * * * * * * * * * * * * * * * * * * * * * * * * * * * * * //

dimensions      [0 2 -2 0 0 0 0];


internalField   nonuniform List<scalar> 
243374
(
-6.12257e-14
-3.92951e-11
-5.9097e-11
-8.20795e-11
-1.04724e-10
-1.27053e-10
-1.49228e-10
-1.7129e-10
-1.93308e-10
-2.1528e-10
-2.37231e-10
-2.59184e-10
-2.81129e-10
-3.03067e-10
-3.25007e-10
-3.46943e-10
-3.68888e-10
-3.90834e-10
-4.12772e-10
-4.34724e-10
-4.56679e-10
-4.78612e-10
-5.00555e-10
-5.22514e-10
-5.44453e-10
-5.66403e-10
-5.88352e-10
-6.10293e-10
-6.32242e-10
-6.54193e-10
-6.76141e-10
-6.98084e-10
-7.20033e-10
-7.41982e-10
-7.63931e-10
-7.85879e-10
-8.07818e-10
-8.29772e-10
-8.51723e-10
-8.73664e-10
-8.9561e-10
-9.17566e-10
-9.39507e-10
-9.61457e-10
-9.83403e-10
-1.00535e-09
-1.0273e-09
-1.04925e-09
-1.0712e-09
-1.09316e-09
-1.11511e-09
-1.13707e-09
-1.15903e-09
-1.181e-09
-1.20298e-09
-1.22496e-09
-1.24697e-09
-1.26899e-09
-1.29106e-09
-1.31317e-09
-1.33536e-09
-1.35764e-09
-1.38006e-09
-1.40269e-09
-1.42559e-09
-1.4489e-09
-1.47278e-09
-1.49748e-09
-1.5233e-09
-1.55077e-09
-1.58047e-09
-1.61331e-09
-1.65064e-09
-1.69404e-09
-1.74575e-09
-1.80852e-09
-1.88689e-09
-1.98475e-09
-2.10089e-09
-2.28171e-09
-1.25153e-11
-4.0168e-11
-5.94679e-11
-8.22472e-11
-1.04816e-10
-1.27116e-10
-1.49271e-10
-1.71325e-10
-1.93319e-10
-2.15294e-10
-2.37248e-10
-2.59192e-10
-2.81129e-10
-3.03069e-10
-3.25011e-10
-3.46955e-10
-3.689e-10
-3.90837e-10
-4.12789e-10
-4.34728e-10
-4.5667e-10
-4.78633e-10
-5.00574e-10
-5.22506e-10
-5.44463e-10
-5.66409e-10
-5.88355e-10
-6.10305e-10
-6.3225e-10
-6.54196e-10
-6.76145e-10
-6.98095e-10
-7.20038e-10
-7.41986e-10
-7.63938e-10
-7.85881e-10
-8.07834e-10
-8.29776e-10
-8.51724e-10
-8.73674e-10
-8.9562e-10
-9.17566e-10
-9.39515e-10
-9.61467e-10
-9.83405e-10
-1.00536e-09
-1.02731e-09
-1.04925e-09
-1.07121e-09
-1.09317e-09
-1.11511e-09
-1.13707e-09
-1.15903e-09
-1.181e-09
-1.20298e-09
-1.22497e-09
-1.24697e-09
-1.269e-09
-1.29106e-09
-1.31317e-09
-1.33535e-09
-1.35764e-09
-1.38006e-09
-1.4027e-09
-1.42561e-09
-1.44894e-09
-1.47286e-09
-1.49758e-09
-1.52348e-09
-1.55102e-09
-1.58086e-09
-1.61396e-09
-1.65149e-09
-1.69524e-09
-1.74747e-09
-1.81118e-09
-1.89019e-09
-1.98921e-09
-2.1081e-09
-2.27463e-09
-2.96634e-11
-4.03629e-11
-5.97195e-11
-8.23408e-11
-1.04858e-10
-1.27133e-10
-1.49268e-10
-1.71324e-10
-1.93329e-10
-2.15294e-10
-2.37238e-10
-2.59186e-10
-2.8113e-10
-3.0307e-10
-3.25006e-10
-3.46946e-10
-3.68883e-10
-3.90837e-10
-4.12772e-10
-4.34722e-10
-4.56676e-10
-4.78599e-10
-5.00553e-10
-5.22521e-10
-5.44454e-10
-5.66401e-10
-5.88353e-10
-6.10291e-10
-6.32242e-10
-6.54188e-10
-6.76134e-10
-6.98081e-10
-7.20036e-10
-7.41985e-10
-7.63923e-10
-7.85875e-10
-8.07816e-10
-8.29771e-10
-8.51724e-10
-8.73662e-10
-8.95615e-10
-9.17565e-10
-9.39508e-10
-9.61449e-10
-9.83407e-10
-1.00535e-09
-1.02729e-09
-1.04926e-09
-1.07119e-09
-1.09314e-09
-1.11511e-09
-1.13707e-09
-1.15903e-09
-1.18099e-09
-1.20296e-09
-1.22494e-09
-1.24695e-09
-1.26897e-09
-1.29104e-09
-1.31316e-09
-1.33534e-09
-1.35762e-09
-1.38005e-09
-1.40267e-09
-1.4256e-09
-1.44894e-09
-1.47286e-09
-1.49763e-09
-1.52356e-09
-1.55117e-09
-1.58112e-09
-1.61431e-09
-1.65204e-09
-1.69606e-09
-1.74865e-09
-1.81284e-09
-1.89243e-09
-1.99194e-09
-2.11241e-09
-2.26162e-09
1.25448e-10
-2.35478e-11
-3.80106e-11
-5.97382e-11
-8.23975e-11
-1.04897e-10
-1.27155e-10
-1.49317e-10
-1.71339e-10
-1.93329e-10
-2.15299e-10
-2.37257e-10
-2.59193e-10
-2.81133e-10
-3.03064e-10
-3.25012e-10
-3.46948e-10
-3.68904e-10
-3.90831e-10
-4.12789e-10
-4.34736e-10
-4.5667e-10
-4.78635e-10
-5.0057e-10
-5.22496e-10
-5.44458e-10
-5.66406e-10
-5.88354e-10
-6.10307e-10
-6.32247e-10
-6.54199e-10
-6.7615e-10
-6.98096e-10
-7.20031e-10
-7.41976e-10
-7.63942e-10
-7.85874e-10
-8.07833e-10
-8.29772e-10
-8.51714e-10
-8.73663e-10
-8.95615e-10
-9.17561e-10
-9.39508e-10
-9.61471e-10
-9.83398e-10
-1.00536e-09
-1.02731e-09
-1.04924e-09
-1.07121e-09
-1.09316e-09
-1.1151e-09
-1.13705e-09
-1.15901e-09
-1.18099e-09
-1.20296e-09
-1.22496e-09
-1.24695e-09
-1.26899e-09
-1.29105e-09
-1.31314e-09
-1.33533e-09
-1.35761e-09
-1.38003e-09
-1.40267e-09
-1.4256e-09
-1.44893e-09
-1.47289e-09
-1.49765e-09
-1.52363e-09
-1.55129e-09
-1.58129e-09
-1.61458e-09
-1.65252e-09
-1.69672e-09
-1.74959e-09
-1.81415e-09
-1.89424e-09
-1.99442e-09
-2.11873e-09
-2.26646e-09
-2.42195e-09
1.14973e-10
-2.84038e-11
-3.86538e-11
-5.97897e-11
-8.24373e-11
-1.04923e-10
-1.27173e-10
-1.49289e-10
-1.71348e-10
-1.93339e-10
-2.15303e-10
-2.3725e-10
-2.59183e-10
-2.81127e-10
-3.03078e-10
-3.25006e-10
-3.46956e-10
-3.68881e-10
-3.90841e-10
-4.12772e-10
-4.34714e-10
-4.56664e-10
-4.78595e-10
-5.0056e-10
-5.22526e-10
-5.44458e-10
-5.66407e-10
-5.8835e-10
-6.1029e-10
-6.32246e-10
-6.54188e-10
-6.76134e-10
-6.98075e-10
-7.20034e-10
-7.41992e-10
-7.63922e-10
-7.85881e-10
-8.07821e-10
-8.29763e-10
-8.51714e-10
-8.73664e-10
-8.95608e-10
-9.17556e-10
-9.39502e-10
-9.61448e-10
-9.83408e-10
-1.00535e-09
-1.02729e-09
-1.04926e-09
-1.07119e-09
-1.09314e-09
-1.1151e-09
-1.13707e-09
-1.15903e-09
-1.18099e-09
-1.20295e-09
-1.22492e-09
-1.24694e-09
-1.26895e-09
-1.29101e-09
-1.31314e-09
-1.33531e-09
-1.35759e-09
-1.38002e-09
-1.40264e-09
-1.42556e-09
-1.44892e-09
-1.47284e-09
-1.49764e-09
-1.52362e-09
-1.5513e-09
-1.58136e-09
-1.61474e-09
-1.65268e-09
-1.69709e-09
-1.75017e-09
-1.81497e-09
-1.89537e-09
-1.99597e-09
-2.12044e-09
-2.26674e-09
-2.44459e-09
-2.72431e-09
1.10983e-10
-2.28271e-11
-3.73873e-11
-5.97176e-11
-8.24599e-11
-1.04921e-10
-1.27184e-10
-1.49329e-10
-1.71347e-10
-1.9334e-10
-2.15301e-10
-2.37253e-10
-2.59199e-10
-2.81132e-10
-3.0306e-10
-3.25017e-10
-3.46939e-10
-3.68901e-10
-3.90826e-10
-4.12781e-10
-4.34737e-10
-4.56678e-10
-4.78636e-10
-5.00565e-10
-5.22493e-10
-5.44457e-10
-5.66401e-10
-5.88351e-10
-6.10302e-10
-6.32242e-10
-6.54193e-10
-6.76147e-10
-6.98102e-10
-7.20035e-10
-7.41967e-10
-7.63931e-10
-7.85869e-10
-8.07819e-10
-8.29767e-10
-8.51715e-10
-8.73655e-10
-8.95612e-10
-9.17556e-10
-9.39509e-10
-9.61453e-10
-9.834e-10
-1.00535e-09
-1.02731e-09
-1.04923e-09
-1.0712e-09
-1.09316e-09
-1.11511e-09
-1.13704e-09
-1.159e-09
-1.18097e-09
-1.20295e-09
-1.22495e-09
-1.24693e-09
-1.26896e-09
-1.29102e-09
-1.31311e-09
-1.33529e-09
-1.35756e-09
-1.37998e-09
-1.40261e-09
-1.42554e-09
-1.44887e-09
-1.47281e-09
-1.49759e-09
-1.52357e-09
-1.55125e-09
-1.58132e-09
-1.61472e-09
-1.65276e-09
-1.69719e-09
-1.75035e-09
-1.81528e-09
-1.89584e-09
-1.99673e-09
-2.12284e-09
-2.27481e-09
-2.4545e-09
-2.72704e-09
1.06196e-10
-2.54868e-11
-3.78334e-11
-5.97689e-11
-8.24642e-11
-1.04953e-10
-1.27184e-10
-1.49311e-10
-1.71355e-10
-1.93335e-10
-2.15312e-10
-2.37252e-10
-2.59179e-10
-2.81137e-10
-3.0308e-10
-3.25004e-10
-3.46954e-10
-3.68887e-10
-3.90848e-10
-4.12783e-10
-4.34714e-10
-4.56659e-10
-4.78601e-10
-5.00563e-10
-5.2252e-10
-5.44462e-10
-5.66408e-10
-5.88349e-10
-6.10299e-10
-6.32249e-10
-6.54192e-10
-6.76134e-10
-6.98072e-10
-7.20028e-10
-7.41997e-10
-7.63933e-10
-7.85872e-10
-8.07817e-10
-8.29761e-10
-8.51702e-10
-8.73656e-10
-8.9559e-10
-9.17554e-10
-9.39488e-10
-9.61451e-10
-9.83398e-10
-1.00535e-09
-1.02729e-09
-1.04926e-09
-1.0712e-09
-1.09314e-09
-1.11509e-09
-1.13706e-09
-1.15902e-09
-1.18098e-09
-1.20293e-09
-1.22492e-09
-1.24692e-09
-1.26893e-09
-1.29099e-09
-1.3131e-09
-1.33526e-09
-1.35754e-09
-1.37995e-09
-1.40257e-09
-1.42547e-09
-1.44881e-09
-1.47273e-09
-1.4975e-09
-1.52346e-09
-1.55113e-09
-1.58117e-09
-1.61455e-09
-1.65257e-09
-1.697e-09
-1.75015e-09
-1.81507e-09
-1.89562e-09
-1.99653e-09
-2.12241e-09
-2.27195e-09
-2.45716e-09
-2.72901e-09
1.04642e-10
-2.54382e-11
-3.78197e-11
-5.97534e-11
-8.24639e-11
-1.04924e-10
-1.27194e-10
-1.49315e-10
-1.71353e-10
-1.93348e-10
-2.15295e-10
-2.37253e-10
-2.59199e-10
-2.81121e-10
-3.03064e-10
-3.25015e-10
-3.46939e-10
-3.68891e-10
-3.90824e-10
-4.1277e-10
-4.34733e-10
-4.56679e-10
-4.78625e-10
-5.00562e-10
-5.225e-10
-5.44448e-10
-5.664e-10
-5.88353e-10
-6.10292e-10
-6.32238e-10
-6.54191e-10
-6.76143e-10
-6.98097e-10
-7.20041e-10
-7.41962e-10
-7.63929e-10
-7.8587e-10
-8.0782e-10
-8.2977e-10
-8.51721e-10
-8.73657e-10
-8.95612e-10
-9.17552e-10
-9.39506e-10
-9.61451e-10
-9.83394e-10
-1.00536e-09
-1.0273e-09
-1.04923e-09
-1.07118e-09
-1.09315e-09
-1.1151e-09
-1.13704e-09
-1.15899e-09
-1.18096e-09
-1.20294e-09
-1.22492e-09
-1.24691e-09
-1.26893e-09
-1.29098e-09
-1.31307e-09
-1.33524e-09
-1.3575e-09
-1.37991e-09
-1.40252e-09
-1.42542e-09
-1.44873e-09
-1.47263e-09
-1.49737e-09
-1.52331e-09
-1.55093e-09
-1.58093e-09
-1.61424e-09
-1.65219e-09
-1.69651e-09
-1.74954e-09
-1.81432e-09
-1.89472e-09
-1.99543e-09
-2.12108e-09
-2.27033e-09
-2.45655e-09
-2.7284e-09
1.05372e-10
-2.30344e-11
-3.74467e-11
-5.97372e-11
-8.24585e-11
-1.04947e-10
-1.27174e-10
-1.49316e-10
-1.71349e-10
-1.93326e-10
-2.1531e-10
-2.37251e-10
-2.59182e-10
-2.81141e-10
-3.03071e-10
-3.2501e-10
-3.46947e-10
-3.68895e-10
-3.9085e-10
-4.12789e-10
-4.34717e-10
-4.56661e-10
-4.7861e-10
-5.00563e-10
-5.2251e-10
-5.44462e-10
-5.66411e-10
-5.88347e-10
-6.10305e-10
-6.32254e-10
-6.54194e-10
-6.76137e-10
-6.9808e-10
-7.20023e-10
-7.41999e-10
-7.63926e-10
-7.85872e-10
-8.07819e-10
-8.29765e-10
-8.51698e-10
-8.73659e-10
-8.95606e-10
-9.17553e-10
-9.39499e-10
-9.6145e-10
-9.83402e-10
-1.00534e-09
-1.02729e-09
-1.04925e-09
-1.0712e-09
-1.09314e-09
-1.11509e-09
-1.13705e-09
-1.15901e-09
-1.18096e-09
-1.20293e-09
-1.22491e-09
-1.24691e-09
-1.26891e-09
-1.29096e-09
-1.31306e-09
-1.33521e-09
-1.35747e-09
-1.37987e-09
-1.40245e-09
-1.42534e-09
-1.44863e-09
-1.4725e-09
-1.49721e-09
-1.52309e-09
-1.55065e-09
-1.58056e-09
-1.61378e-09
-1.65158e-09
-1.69572e-09
-1.74854e-09
-1.81304e-09
-1.8931e-09
-1.9934e-09
-2.11876e-09
-2.27066e-09
-2.45296e-09
-2.72493e-09
1.08639e-10
-2.83051e-11
-3.86408e-11
-5.97993e-11
-8.24392e-11
-1.04898e-10
-1.27182e-10
-1.49286e-10
-1.71345e-10
-1.9334e-10
-2.15289e-10
-2.37253e-10
-2.59196e-10
-2.81113e-10
-3.0307e-10
-3.25006e-10
-3.46945e-10
-3.68882e-10
-3.90822e-10
-4.12768e-10
-4.34728e-10
-4.56671e-10
-4.78618e-10
-5.00561e-10
-5.22509e-10
-5.44453e-10
-5.66394e-10
-5.88352e-10
-6.1029e-10
-6.32234e-10
-6.54187e-10
-6.76137e-10
-6.98086e-10
-7.20041e-10
-7.41965e-10
-7.63922e-10
-7.85885e-10
-8.0782e-10
-8.2977e-10
-8.51717e-10
-8.73657e-10
-8.95609e-10
-9.17554e-10
-9.39503e-10
-9.61448e-10
-9.834e-10
-1.00535e-09
-1.02729e-09
-1.04923e-09
-1.07117e-09
-1.09314e-09
-1.11509e-09
-1.13702e-09
-1.15899e-09
-1.18095e-09
-1.20293e-09
-1.2249e-09
-1.24688e-09
-1.2689e-09
-1.29094e-09
-1.31301e-09
-1.33518e-09
-1.35743e-09
-1.37981e-09
-1.4024e-09
-1.42526e-09
-1.44852e-09
-1.47235e-09
-1.49701e-09
-1.52282e-09
-1.5503e-09
-1.58011e-09
-1.61317e-09
-1.65078e-09
-1.69468e-09
-1.74715e-09
-1.81128e-09
-1.89083e-09
-1.99047e-09
-2.11404e-09
-2.25913e-09
-2.44347e-09
-2.71962e-09
1.19751e-10
-2.3683e-11
-3.80309e-11
-5.97266e-11
-8.24005e-11
-1.04901e-10
-1.27151e-10
-1.49291e-10
-1.71338e-10
-1.93323e-10
-2.15305e-10
-2.37245e-10
-2.59182e-10
-2.81139e-10
-3.03068e-10
-3.25013e-10
-3.46946e-10
-3.689e-10
-3.90851e-10
-4.12791e-10
-4.3472e-10
-4.5667e-10
-4.78616e-10
-5.00561e-10
-5.2251e-10
-5.44457e-10
-5.66414e-10
-5.88351e-10
-6.10305e-10
-6.32255e-10
-6.54199e-10
-6.76139e-10
-6.98092e-10
-7.20024e-10
-7.41993e-10
-7.63938e-10
-7.85866e-10
-8.07827e-10
-8.29778e-10
-8.51714e-10
-8.73667e-10
-8.9561e-10
-9.17568e-10
-9.39503e-10
-9.6146e-10
-9.83398e-10
-1.00535e-09
-1.0273e-09
-1.04924e-09
-1.0712e-09
-1.09314e-09
-1.11509e-09
-1.13705e-09
-1.15899e-09
-1.18095e-09
-1.20291e-09
-1.22489e-09
-1.24688e-09
-1.26888e-09
-1.29093e-09
-1.31301e-09
-1.33516e-09
-1.35739e-09
-1.37976e-09
-1.40232e-09
-1.42516e-09
-1.44839e-09
-1.47219e-09
-1.49678e-09
-1.52255e-09
-1.54989e-09
-1.57954e-09
-1.61243e-09
-1.64979e-09
-1.69337e-09
-1.74542e-09
-1.80903e-09
-1.88793e-09
-1.98676e-09
-2.10961e-09
-2.25628e-09
-2.42476e-09
-2.71766e-09
1.46556e-10
-2.97287e-11
-4.0361e-11
-5.97289e-11
-8.23341e-11
-1.0484e-10
-1.27128e-10
-1.49262e-10
-1.71319e-10
-1.9332e-10
-2.15281e-10
-2.37245e-10
-2.59187e-10
-2.81112e-10
-3.03065e-10
-3.25004e-10
-3.46942e-10
-3.68883e-10
-3.90822e-10
-4.12769e-10
-4.34723e-10
-4.56666e-10
-4.7861e-10
-5.00564e-10
-5.22506e-10
-5.44456e-10
-5.66395e-10
-5.88348e-10
-6.10293e-10
-6.32235e-10
-6.54182e-10
-6.76135e-10
-6.98082e-10
-7.20039e-10
-7.41971e-10
-7.63918e-10
-7.8588e-10
-8.07823e-10
-8.29761e-10
-8.51722e-10
-8.73663e-10
-8.95607e-10
-9.17555e-10
-9.39502e-10
-9.61445e-10
-9.83397e-10
-1.00534e-09
-1.02729e-09
-1.04924e-09
-1.07117e-09
-1.09313e-09
-1.11507e-09
-1.13702e-09
-1.15898e-09
-1.18094e-09
-1.20291e-09
-1.22487e-09
-1.24685e-09
-1.26887e-09
-1.29089e-09
-1.31297e-09
-1.3351e-09
-1.35734e-09
-1.37969e-09
-1.40224e-09
-1.42505e-09
-1.44824e-09
-1.47198e-09
-1.49652e-09
-1.52217e-09
-1.54941e-09
-1.57889e-09
-1.61155e-09
-1.6486e-09
-1.69177e-09
-1.74331e-09
-1.80636e-09
-1.88436e-09
-1.98219e-09
-2.10088e-09
-2.24819e-09
-2.39433e-09
-1.25721e-11
-4.01848e-11
-5.94678e-11
-8.22383e-11
-1.04812e-10
-1.27107e-10
-1.49253e-10
-1.71314e-10
-1.93315e-10
-2.15289e-10
-2.37237e-10
-2.59182e-10
-2.81133e-10
-3.03065e-10
-3.2501e-10
-3.46952e-10
-3.68894e-10
-3.90843e-10
-4.12787e-10
-4.34727e-10
-4.56671e-10
-4.7862e-10
-5.00561e-10
-5.22513e-10
-5.44456e-10
-5.66412e-10
-5.88354e-10
-6.103e-10
-6.32252e-10
-6.54201e-10
-6.76142e-10
-6.98088e-10
-7.20029e-10
-7.4199e-10
-7.63936e-10
-7.85873e-10
-8.07825e-10
-8.2978e-10
-8.5172e-10
-8.73669e-10
-8.95619e-10
-9.17563e-10
-9.39508e-10
-9.61458e-10
-9.83398e-10
-1.00534e-09
-1.0273e-09
-1.04924e-09
-1.07119e-09
-1.09313e-09
-1.11509e-09
-1.13704e-09
-1.15898e-09
-1.18094e-09
-1.2029e-09
-1.22487e-09
-1.24686e-09
-1.26885e-09
-1.29089e-09
-1.31295e-09
-1.33508e-09
-1.3573e-09
-1.37964e-09
-1.40216e-09
-1.42494e-09
-1.44809e-09
-1.4718e-09
-1.49624e-09
-1.52183e-09
-1.54891e-09
-1.5782e-09
-1.61062e-09
-1.64733e-09
-1.69005e-09
-1.74104e-09
-1.80368e-09
-1.8805e-09
-1.97757e-09
-2.09417e-09
-2.25835e-09
-1.91616e-13
-3.93103e-11
-5.91028e-11
-8.20692e-11
-1.04708e-10
-1.27042e-10
-1.49213e-10
-1.71285e-10
-1.93295e-10
-2.15269e-10
-2.37233e-10
-2.5918e-10
-2.81108e-10
-3.03061e-10
-3.25005e-10
-3.4694e-10
-3.68888e-10
-3.90827e-10
-4.12775e-10
-4.34719e-10
-4.56668e-10
-4.78608e-10
-5.00566e-10
-5.22508e-10
-5.44455e-10
-5.66399e-10
-5.88348e-10
-6.103e-10
-6.32238e-10
-6.54181e-10
-6.76141e-10
-6.98082e-10
-7.20035e-10
-7.41975e-10
-7.63922e-10
-7.85874e-10
-8.07825e-10
-8.29765e-10
-8.5172e-10
-8.73663e-10
-8.95607e-10
-9.17558e-10
-9.395e-10
-9.61443e-10
-9.83394e-10
-1.00534e-09
-1.02729e-09
-1.04923e-09
-1.07118e-09
-1.09313e-09
-1.11507e-09
-1.13702e-09
-1.15898e-09
-1.18093e-09
-1.20289e-09
-1.22485e-09
-1.24683e-09
-1.26883e-09
-1.29085e-09
-1.31292e-09
-1.33503e-09
-1.35723e-09
-1.37955e-09
-1.40205e-09
-1.42479e-09
-1.44791e-09
-1.47152e-09
-1.49591e-09
-1.52132e-09
-1.54828e-09
-1.57734e-09
-1.60943e-09
-1.64571e-09
-1.68786e-09
-1.73824e-09
-1.79929e-09
-1.87506e-09
-1.97035e-09
-2.08439e-09
-2.26285e-09
-1.61454e-11
-3.15639e-11
-5.69926e-11
-8.12138e-11
-1.04292e-10
-1.2682e-10
-1.49081e-10
-1.71195e-10
-1.93243e-10
-2.1524e-10
-2.37209e-10
-2.59166e-10
-2.8111e-10
-3.03062e-10
-3.25e-10
-3.46942e-10
-3.68889e-10
-3.90832e-10
-4.12775e-10
-4.3472e-10
-4.56672e-10
-4.78617e-10
-5.00555e-10
-5.2251e-10
-5.44453e-10
-5.66407e-10
-5.88353e-10
-6.10295e-10
-6.32239e-10
-6.54195e-10
-6.7614e-10
-6.98086e-10
-7.20026e-10
-7.41984e-10
-7.63932e-10
-7.85877e-10
-8.07821e-10
-8.29768e-10
-8.51719e-10
-8.73669e-10
-8.95613e-10
-9.17561e-10
-9.39511e-10
-9.61456e-10
-9.83411e-10
-1.00535e-09
-1.02731e-09
-1.04926e-09
-1.07121e-09
-1.09316e-09
-1.11512e-09
-1.13708e-09
-1.15904e-09
-1.18101e-09
-1.20299e-09
-1.22498e-09
-1.24699e-09
-1.26901e-09
-1.29107e-09
-1.31319e-09
-1.33537e-09
-1.35762e-09
-1.38001e-09
-1.40259e-09
-1.42542e-09
-1.4486e-09
-1.47229e-09
-1.49669e-09
-1.52215e-09
-1.54895e-09
-1.57778e-09
-1.6094e-09
-1.64492e-09
-1.68582e-09
-1.73434e-09
-1.79299e-09
-1.86618e-09
-1.95909e-09
-2.07708e-09
-2.21914e-09
1.44709e-10
-2.30083e-11
-3.33486e-11
-5.76302e-11
-8.14854e-11
-1.04439e-10
-1.26906e-10
-1.49139e-10
-1.71235e-10
-1.93267e-10
-2.15259e-10
-2.37219e-10
-2.5917e-10
-2.81125e-10
-3.03059e-10
-3.25009e-10
-3.46957e-10
-3.68892e-10
-3.90835e-10
-4.12785e-10
-4.34728e-10
-4.56667e-10
-4.78618e-10
-5.00572e-10
-5.22515e-10
-5.44464e-10
-5.66406e-10
-5.88353e-10
-6.10306e-10
-6.32259e-10
-6.54194e-10
-6.76144e-10
-6.98093e-10
-7.20044e-10
-7.41984e-10
-7.63925e-10
-7.85877e-10
-8.07835e-10
-8.29776e-10
-8.5172e-10
-8.73675e-10
-8.95622e-10
-9.17564e-10
-9.39511e-10
-9.6146e-10
-9.83415e-10
-1.00537e-09
-1.02731e-09
-1.04926e-09
-1.07121e-09
-1.09318e-09
-1.11512e-09
-1.13708e-09
-1.15904e-09
-1.18102e-09
-1.20299e-09
-1.22498e-09
-1.24699e-09
-1.26903e-09
-1.29109e-09
-1.3132e-09
-1.33537e-09
-1.35763e-09
-1.38004e-09
-1.40263e-09
-1.42548e-09
-1.44872e-09
-1.47245e-09
-1.49696e-09
-1.52251e-09
-1.54952e-09
-1.57857e-09
-1.61053e-09
-1.64654e-09
-1.68817e-09
-1.73759e-09
-1.79776e-09
-1.87209e-09
-1.96602e-09
-2.08537e-09
-2.22199e-09
-2.34216e-09
1.30587e-10
-1.28271e-11
-3.40402e-11
-5.80547e-11
-8.16676e-11
-1.04519e-10
-1.2695e-10
-1.4915e-10
-1.71246e-10
-1.93275e-10
-2.15256e-10
-2.3723e-10
-2.59173e-10
-2.81111e-10
-3.03071e-10
-3.25003e-10
-3.46938e-10
-3.6889e-10
-3.90835e-10
-4.12772e-10
-4.34722e-10
-4.56676e-10
-4.78616e-10
-5.00554e-10
-5.2251e-10
-5.44452e-10
-5.66409e-10
-5.88353e-10
-6.10293e-10
-6.32236e-10
-6.54197e-10
-6.76144e-10
-6.98081e-10
-7.2003e-10
-7.41982e-10
-7.63938e-10
-7.85883e-10
-8.07809e-10
-8.2977e-10
-8.51724e-10
-8.73666e-10
-8.95606e-10
-9.17565e-10
-9.39513e-10
-9.61458e-10
-9.83405e-10
-1.00535e-09
-1.02731e-09
-1.04926e-09
-1.07122e-09
-1.09315e-09
-1.11512e-09
-1.13707e-09
-1.15904e-09
-1.181e-09
-1.20298e-09
-1.22498e-09
-1.24698e-09
-1.269e-09
-1.29107e-09
-1.31318e-09
-1.33538e-09
-1.35764e-09
-1.38005e-09
-1.40265e-09
-1.42553e-09
-1.44877e-09
-1.47257e-09
-1.49712e-09
-1.52276e-09
-1.54989e-09
-1.5792e-09
-1.61146e-09
-1.64787e-09
-1.69006e-09
-1.74015e-09
-1.80147e-09
-1.87708e-09
-1.97241e-09
-2.09323e-09
-2.24266e-09
-2.35668e-09
-2.60887e-09
1.46335e-10
-1.34828e-11
-3.49961e-11
-5.84861e-11
-8.18506e-11
-1.04605e-10
-1.27005e-10
-1.49195e-10
-1.71269e-10
-1.93288e-10
-2.15272e-10
-2.37236e-10
-2.59181e-10
-2.81119e-10
-3.0306e-10
-3.25016e-10
-3.4696e-10
-3.68891e-10
-3.90838e-10
-4.12789e-10
-4.34728e-10
-4.56657e-10
-4.78616e-10
-5.0058e-10
-5.22514e-10
-5.44461e-10
-5.66406e-10
-5.88346e-10
-6.10311e-10
-6.3226e-10
-6.54192e-10
-6.76146e-10
-6.98094e-10
-7.20045e-10
-7.41983e-10
-7.63927e-10
-7.85871e-10
-8.07845e-10
-8.29779e-10
-8.51711e-10
-8.73676e-10
-8.95625e-10
-9.1756e-10
-9.39513e-10
-9.61457e-10
-9.83415e-10
-1.00536e-09
-1.02731e-09
-1.04925e-09
-1.0712e-09
-1.09317e-09
-1.11511e-09
-1.13708e-09
-1.15903e-09
-1.18101e-09
-1.20298e-09
-1.22498e-09
-1.24698e-09
-1.26902e-09
-1.29109e-09
-1.31319e-09
-1.33536e-09
-1.35764e-09
-1.38006e-09
-1.40267e-09
-1.42557e-09
-1.44884e-09
-1.47267e-09
-1.4973e-09
-1.52303e-09
-1.55033e-09
-1.57977e-09
-1.6123e-09
-1.64913e-09
-1.69186e-09
-1.7427e-09
-1.80513e-09
-1.88166e-09
-1.9782e-09
-2.09996e-09
-2.25033e-09
-2.31257e-09
-2.64214e-09
1.05049e-10
-9.35013e-12
-3.52346e-11
-5.88603e-11
-8.2037e-11
-1.04699e-10
-1.27056e-10
-1.49235e-10
-1.71289e-10
-1.93311e-10
-2.15286e-10
-2.37244e-10
-2.59181e-10
-2.8113e-10
-3.03074e-10
-3.25007e-10
-3.4694e-10
-3.68891e-10
-3.90841e-10
-4.12778e-10
-4.34723e-10
-4.56686e-10
-4.78617e-10
-5.00555e-10
-5.22519e-10
-5.44456e-10
-5.66408e-10
-5.88355e-10
-6.10294e-10
-6.32243e-10
-6.54199e-10
-6.76142e-10
-6.9809e-10
-7.20032e-10
-7.41981e-10
-7.63936e-10
-7.8589e-10
-8.07816e-10
-8.29775e-10
-8.51729e-10
-8.7367e-10
-8.95609e-10
-9.17572e-10
-9.39513e-10
-9.61457e-10
-9.8341e-10
-1.00536e-09
-1.0273e-09
-1.04926e-09
-1.07121e-09
-1.09316e-09
-1.11512e-09
-1.13707e-09
-1.15904e-09
-1.181e-09
-1.20299e-09
-1.22497e-09
-1.24697e-09
-1.269e-09
-1.29106e-09
-1.31317e-09
-1.33537e-09
-1.35765e-09
-1.38006e-09
-1.40269e-09
-1.42558e-09
-1.44887e-09
-1.47276e-09
-1.49741e-09
-1.52321e-09
-1.55061e-09
-1.58024e-09
-1.61301e-09
-1.65014e-09
-1.69332e-09
-1.74474e-09
-1.8071e-09
-1.88526e-09
-1.98324e-09
-2.10717e-09
-2.26166e-09
-2.36746e-09
-2.66794e-09
8.82969e-11
-1.20665e-11
-3.66652e-11
-5.93707e-11
-8.22656e-11
-1.04827e-10
-1.27161e-10
-1.49279e-10
-1.71347e-10
-1.93334e-10
-2.15305e-10
-2.37272e-10
-2.59202e-10
-2.81122e-10
-3.03075e-10
-3.25014e-10
-3.46969e-10
-3.68906e-10
-3.90843e-10
-4.12788e-10
-4.34733e-10
-4.56655e-10
-4.78638e-10
-5.0059e-10
-5.22509e-10
-5.44461e-10
-5.66414e-10
-5.88349e-10
-6.10322e-10
-6.32259e-10
-6.542e-10
-6.76146e-10
-6.98107e-10
-7.20049e-10
-7.41986e-10
-7.63928e-10
-7.85888e-10
-8.07844e-10
-8.29785e-10
-8.51718e-10
-8.7369e-10
-8.95629e-10
-9.17557e-10
-9.39526e-10
-9.61468e-10
-9.83419e-10
-1.00537e-09
-1.02732e-09
-1.04925e-09
-1.07122e-09
-1.09316e-09
-1.11511e-09
-1.13707e-09
-1.15903e-09
-1.18101e-09
-1.20297e-09
-1.22498e-09
-1.24698e-09
-1.26901e-09
-1.29107e-09
-1.31318e-09
-1.33535e-09
-1.35764e-09
-1.38006e-09
-1.40268e-09
-1.4256e-09
-1.44891e-09
-1.47282e-09
-1.49752e-09
-1.52338e-09
-1.5509e-09
-1.58062e-09
-1.61362e-09
-1.65103e-09
-1.69461e-09
-1.74659e-09
-1.80995e-09
-1.88871e-09
-1.98756e-09
-2.11186e-09
-2.26964e-09
-2.42842e-09
-2.67368e-09
7.99629e-11
-1.57489e-11
-3.78302e-11
-5.96935e-11
-8.24215e-11
-1.04904e-10
-1.27198e-10
-1.49306e-10
-1.71355e-10
-1.93349e-10
-2.15315e-10
-2.37252e-10
-2.59197e-10
-2.81144e-10
-3.03083e-10
-3.25015e-10
-3.46946e-10
-3.6889e-10
-3.90843e-10
-4.12782e-10
-4.34721e-10
-4.56683e-10
-4.78605e-10
-5.00554e-10
-5.22526e-10
-5.44458e-10
-5.66403e-10
-5.88357e-10
-6.10291e-10
-6.32249e-10
-6.54198e-10
-6.76148e-10
-6.98082e-10
-7.20034e-10
-7.41986e-10
-7.63934e-10
-7.85881e-10
-8.0783e-10
-8.29781e-10
-8.51718e-10
-8.73672e-10
-8.9562e-10
-9.1757e-10
-9.39518e-10
-9.61446e-10
-9.8341e-10
-1.00535e-09
-1.0273e-09
-1.04927e-09
-1.0712e-09
-1.09316e-09
-1.11512e-09
-1.13707e-09
-1.15903e-09
-1.18099e-09
-1.20298e-09
-1.22495e-09
-1.24695e-09
-1.26898e-09
-1.29105e-09
-1.31316e-09
-1.33535e-09
-1.35762e-09
-1.38005e-09
-1.40268e-09
-1.42558e-09
-1.44893e-09
-1.47282e-09
-1.49758e-09
-1.52348e-09
-1.55106e-09
-1.58096e-09
-1.61407e-09
-1.65171e-09
-1.6956e-09
-1.74799e-09
-1.81189e-09
-1.89131e-09
-1.99063e-09
-2.11476e-09
-2.27227e-09
-2.45367e-09
-2.68086e-09
5.18235e-11
-1.43328e-11
-3.72644e-11
-5.98322e-11
-8.25092e-11
-1.0497e-10
-1.27229e-10
-1.49335e-10
-1.71372e-10
-1.93364e-10
-2.15323e-10
-2.37276e-10
-2.59217e-10
-2.81139e-10
-3.03073e-10
-3.25023e-10
-3.46967e-10
-3.68911e-10
-3.90844e-10
-4.12785e-10
-4.3473e-10
-4.56674e-10
-4.7864e-10
-5.00582e-10
-5.22506e-10
-5.44462e-10
-5.66414e-10
-5.88353e-10
-6.10322e-10
-6.32255e-10
-6.54205e-10
-6.7614e-10
-6.98108e-10
-7.20048e-10
-7.41981e-10
-7.63934e-10
-7.8589e-10
-8.07828e-10
-8.29777e-10
-8.5173e-10
-8.73672e-10
-8.95617e-10
-9.1756e-10
-9.39519e-10
-9.61469e-10
-9.83416e-10
-1.00537e-09
-1.02731e-09
-1.04925e-09
-1.07121e-09
-1.09317e-09
-1.11512e-09
-1.13706e-09
-1.15902e-09
-1.18099e-09
-1.20297e-09
-1.22497e-09
-1.24696e-09
-1.26899e-09
-1.29104e-09
-1.31314e-09
-1.33533e-09
-1.35761e-09
-1.38003e-09
-1.40266e-09
-1.4256e-09
-1.44891e-09
-1.47286e-09
-1.4976e-09
-1.52355e-09
-1.55116e-09
-1.58115e-09
-1.61438e-09
-1.65218e-09
-1.6963e-09
-1.74903e-09
-1.81335e-09
-1.89319e-09
-1.99317e-09
-2.11869e-09
-2.27817e-09
-2.51158e-09
-2.69219e-09
4.96911e-11
-1.69288e-11
-3.80959e-11
-5.99806e-11
-8.25836e-11
-1.05009e-10
-1.2726e-10
-1.49337e-10
-1.71383e-10
-1.93366e-10
-2.15332e-10
-2.37249e-10
-2.59206e-10
-2.81144e-10
-3.03097e-10
-3.25007e-10
-3.46963e-10
-3.68887e-10
-3.90841e-10
-4.12787e-10
-4.34726e-10
-4.56669e-10
-4.78608e-10
-5.0056e-10
-5.22527e-10
-5.44463e-10
-5.66398e-10
-5.88359e-10
-6.10294e-10
-6.32254e-10
-6.542e-10
-6.76149e-10
-6.98078e-10
-7.20038e-10
-7.41996e-10
-7.63921e-10
-7.85884e-10
-8.07825e-10
-8.29775e-10
-8.51723e-10
-8.73669e-10
-8.95614e-10
-9.17562e-10
-9.39518e-10
-9.6146e-10
-9.83411e-10
-1.00535e-09
-1.0273e-09
-1.04927e-09
-1.0712e-09
-1.09314e-09
-1.1151e-09
-1.13707e-09
-1.15903e-09
-1.18099e-09
-1.20296e-09
-1.22493e-09
-1.24693e-09
-1.26897e-09
-1.29103e-09
-1.31315e-09
-1.33531e-09
-1.35759e-09
-1.38001e-09
-1.40263e-09
-1.42555e-09
-1.4489e-09
-1.47281e-09
-1.4976e-09
-1.52354e-09
-1.5512e-09
-1.58121e-09
-1.61454e-09
-1.65243e-09
-1.6967e-09
-1.74964e-09
-1.81425e-09
-1.8944e-09
-1.99469e-09
-2.11997e-09
-2.2785e-09
-2.51463e-09
-2.70064e-09
4.8786e-11
-1.55733e-11
-3.74737e-11
-5.99821e-11
-8.2629e-11
-1.05037e-10
-1.27263e-10
-1.49375e-10
-1.71382e-10
-1.93377e-10
-2.15315e-10
-2.37282e-10
-2.59221e-10
-2.81141e-10
-3.03067e-10
-3.25025e-10
-3.46962e-10
-3.68912e-10
-3.90835e-10
-4.12782e-10
-4.34727e-10
-4.5669e-10
-4.78636e-10
-5.00568e-10
-5.22506e-10
-5.4445e-10
-5.66422e-10
-5.88355e-10
-6.10315e-10
-6.32251e-10
-6.54198e-10
-6.76141e-10
-6.98108e-10
-7.20047e-10
-7.41976e-10
-7.63932e-10
-7.85884e-10
-8.07824e-10
-8.29773e-10
-8.51719e-10
-8.73667e-10
-8.95613e-10
-9.17562e-10
-9.39512e-10
-9.61452e-10
-9.83408e-10
-1.00536e-09
-1.02732e-09
-1.04924e-09
-1.0712e-09
-1.09317e-09
-1.11511e-09
-1.13706e-09
-1.15901e-09
-1.18097e-09
-1.20296e-09
-1.22496e-09
-1.24694e-09
-1.26896e-09
-1.29101e-09
-1.3131e-09
-1.3353e-09
-1.35757e-09
-1.37999e-09
-1.4026e-09
-1.42553e-09
-1.44884e-09
-1.47279e-09
-1.49753e-09
-1.52351e-09
-1.55114e-09
-1.58118e-09
-1.61452e-09
-1.65249e-09
-1.69681e-09
-1.74984e-09
-1.81457e-09
-1.8949e-09
-1.99542e-09
-2.12155e-09
-2.28007e-09
-2.51791e-09
-2.70582e-09
4.79246e-11
-1.65026e-11
-3.78421e-11
-6.00439e-11
-8.26401e-11
-1.05058e-10
-1.2728e-10
-1.49345e-10
-1.71389e-10
-1.93377e-10
-2.15337e-10
-2.37262e-10
-2.59209e-10
-2.81149e-10
-3.03097e-10
-3.25005e-10
-3.46972e-10
-3.68886e-10
-3.90847e-10
-4.12793e-10
-4.34725e-10
-4.56659e-10
-4.7861e-10
-5.00573e-10
-5.22527e-10
-5.44473e-10
-5.66395e-10
-5.8836e-10
-6.10305e-10
-6.32256e-10
-6.54206e-10
-6.76146e-10
-6.9808e-10
-7.20036e-10
-7.41998e-10
-7.63923e-10
-7.85893e-10
-8.07817e-10
-8.2977e-10
-8.51717e-10
-8.73668e-10
-8.95604e-10
-9.17558e-10
-9.39511e-10
-9.61461e-10
-9.83405e-10
-1.00535e-09
-1.02729e-09
-1.04927e-09
-1.07121e-09
-1.09314e-09
-1.1151e-09
-1.13707e-09
-1.15902e-09
-1.18099e-09
-1.20294e-09
-1.22491e-09
-1.24692e-09
-1.26895e-09
-1.291e-09
-1.31311e-09
-1.33527e-09
-1.35754e-09
-1.37995e-09
-1.40256e-09
-1.42546e-09
-1.44879e-09
-1.47269e-09
-1.49745e-09
-1.52338e-09
-1.55102e-09
-1.58103e-09
-1.61437e-09
-1.65229e-09
-1.69662e-09
-1.74963e-09
-1.81438e-09
-1.89467e-09
-1.99518e-09
-2.12111e-09
-2.28002e-09
-2.5181e-09
-2.70764e-09
4.78954e-11
-1.64935e-11
-3.78431e-11
-6.00304e-11
-8.26455e-11
-1.05048e-10
-1.27277e-10
-1.49375e-10
-1.71386e-10
-1.93375e-10
-2.15321e-10
-2.37275e-10
-2.59222e-10
-2.81139e-10
-3.03064e-10
-3.25015e-10
-3.46963e-10
-3.68907e-10
-3.90822e-10
-4.12776e-10
-4.34732e-10
-4.56696e-10
-4.78633e-10
-5.00561e-10
-5.22508e-10
-5.44448e-10
-5.66417e-10
-5.88356e-10
-6.10303e-10
-6.32247e-10
-6.5419e-10
-6.76147e-10
-6.98101e-10
-7.20035e-10
-7.41984e-10
-7.63939e-10
-7.85867e-10
-8.07824e-10
-8.29768e-10
-8.51723e-10
-8.73659e-10
-8.95616e-10
-9.17555e-10
-9.39513e-10
-9.61456e-10
-9.83406e-10
-1.00535e-09
-1.02731e-09
-1.04924e-09
-1.07118e-09
-1.09316e-09
-1.1151e-09
-1.13705e-09
-1.159e-09
-1.18096e-09
-1.20294e-09
-1.22493e-09
-1.24691e-09
-1.26893e-09
-1.29098e-09
-1.31306e-09
-1.33524e-09
-1.3575e-09
-1.37991e-09
-1.40251e-09
-1.42541e-09
-1.44869e-09
-1.4726e-09
-1.49731e-09
-1.52323e-09
-1.55082e-09
-1.58076e-09
-1.61404e-09
-1.6519e-09
-1.69612e-09
-1.74901e-09
-1.8136e-09
-1.89374e-09
-1.99406e-09
-2.1197e-09
-2.27846e-09
-2.51647e-09
-2.70648e-09
4.8766e-11
-1.57209e-11
-3.75078e-11
-5.99947e-11
-8.26187e-11
-1.05048e-10
-1.27259e-10
-1.49361e-10
-1.71369e-10
-1.93372e-10
-2.15331e-10
-2.37268e-10
-2.59208e-10
-2.8116e-10
-3.03084e-10
-3.25009e-10
-3.46973e-10
-3.68893e-10
-3.90845e-10
-4.12795e-10
-4.34724e-10
-4.56661e-10
-4.78611e-10
-5.00574e-10
-5.22526e-10
-5.44473e-10
-5.66401e-10
-5.88357e-10
-6.103e-10
-6.32259e-10
-6.54213e-10
-6.76148e-10
-6.98085e-10
-7.20031e-10
-7.41984e-10
-7.63931e-10
-7.85901e-10
-8.07822e-10
-8.29768e-10
-8.5171e-10
-8.73668e-10
-8.95614e-10
-9.17558e-10
-9.3951e-10
-9.61457e-10
-9.83407e-10
-1.00535e-09
-1.02729e-09
-1.04926e-09
-1.07121e-09
-1.09314e-09
-1.1151e-09
-1.13707e-09
-1.15901e-09
-1.18098e-09
-1.20293e-09
-1.22489e-09
-1.24691e-09
-1.26892e-09
-1.29097e-09
-1.31307e-09
-1.33521e-09
-1.35747e-09
-1.37985e-09
-1.40244e-09
-1.42532e-09
-1.44861e-09
-1.47246e-09
-1.49715e-09
-1.52301e-09
-1.55053e-09
-1.5804e-09
-1.61356e-09
-1.65126e-09
-1.69531e-09
-1.74795e-09
-1.81229e-09
-1.89208e-09
-1.99203e-09
-2.11748e-09
-2.27573e-09
-2.51305e-09
-2.70279e-09
4.96678e-11
-1.68519e-11
-3.80982e-11
-5.99751e-11
-8.25765e-11
-1.05008e-10
-1.27248e-10
-1.49347e-10
-1.71373e-10
-1.93361e-10
-2.15329e-10
-2.37258e-10
-2.59211e-10
-2.8113e-10
-3.03069e-10
-3.25009e-10
-3.46959e-10
-3.68901e-10
-3.90822e-10
-4.12773e-10
-4.34728e-10
-4.56688e-10
-4.78628e-10
-5.00564e-10
-5.22506e-10
-5.44451e-10
-5.66412e-10
-5.8836e-10
-6.10308e-10
-6.32244e-10
-6.54177e-10
-6.76147e-10
-6.9809e-10
-7.20051e-10
-7.4198e-10
-7.63933e-10
-7.85877e-10
-8.07826e-10
-8.29766e-10
-8.51727e-10
-8.73665e-10
-8.95616e-10