/*--------------------------------*- C++ -*----------------------------------*\
| =========                 |                                                 |
| \\      /  F ield         | OpenFOAM: The Open Source CFD Toolbox           |
|  \\    /   O peration     | Version:  v1906                                 |
|   \\  /    A nd           | Web:      www.OpenFOAM.com                      |
|    \\/     M anipulation  |                                                 |
\*---------------------------------------------------------------------------*/
FoamFile
{
    version     2.0;
    format      ascii;
    class       volScalarField;
    location    "0.46";
    object      p;
}
// * * * * * * * * * * * * * * * * * * * * * * * * * * * * * * * * * * * * * //

dimensions      [0 2 -2 0 0 0 0];


internalField   nonuniform List<scalar> 
243374
(
-1.86202e-15
-8.19664e-10
-6.01336e-10
-6.20321e-10
-6.57922e-10
-6.9369e-10
-7.28308e-10
-7.62829e-10
-7.95672e-10
-8.26712e-10
-8.54756e-10
-8.83429e-10
-9.09605e-10
-9.34905e-10
-9.59445e-10
-9.82658e-10
-1.00599e-09
-1.02871e-09
-1.05036e-09
-1.07374e-09
-1.09625e-09
-1.11848e-09
-1.14079e-09
-1.16271e-09
-1.18409e-09
-1.20731e-09
-1.22839e-09
-1.25071e-09
-1.27311e-09
-1.29507e-09
-1.31724e-09
-1.33913e-09
-1.36132e-09
-1.38261e-09
-1.40552e-09
-1.42776e-09
-1.44883e-09
-1.47169e-09
-1.49295e-09
-1.51542e-09
-1.53687e-09
-1.55963e-09
-1.58054e-09
-1.60338e-09
-1.62506e-09
-1.6475e-09
-1.66858e-09
-1.6902e-09
-1.71275e-09
-1.7347e-09
-1.7567e-09
-1.77792e-09
-1.79926e-09
-1.8217e-09
-1.8427e-09
-1.86562e-09
-1.88843e-09
-1.91118e-09
-1.93495e-09
-1.95988e-09
-1.98693e-09
-2.01741e-09
-2.05304e-09
-2.09511e-09
-2.14794e-09
-2.21507e-09
-2.3056e-09
-2.42619e-09
-2.59265e-09
-2.8255e-09
-3.14409e-09
-3.5976e-09
-4.23278e-09
-5.12266e-09
-6.35705e-09
-8.06654e-09
-1.04318e-08
-1.36385e-08
-1.76774e-08
-2.45394e-08
-7.7396e-10
-7.01456e-10
-6.1068e-10
-6.28419e-10
-6.62071e-10
-6.96971e-10
-7.31511e-10
-7.65298e-10
-7.97332e-10
-8.28337e-10
-8.5809e-10
-8.85084e-10
-9.11111e-10
-9.35997e-10
-9.60392e-10
-9.84067e-10
-1.00734e-09
-1.03022e-09
-1.05299e-09
-1.07518e-09
-1.09785e-09
-1.11999e-09
-1.14199e-09
-1.16403e-09
-1.18658e-09
-1.20846e-09
-1.23046e-09
-1.25247e-09
-1.27442e-09
-1.29644e-09
-1.31834e-09
-1.34107e-09
-1.36279e-09
-1.38509e-09
-1.40676e-09
-1.42952e-09
-1.4513e-09
-1.47323e-09
-1.495e-09
-1.51733e-09
-1.53891e-09
-1.56113e-09
-1.58348e-09
-1.6048e-09
-1.62718e-09
-1.64863e-09
-1.67058e-09
-1.69266e-09
-1.71414e-09
-1.7363e-09
-1.75781e-09
-1.77935e-09
-1.80112e-09
-1.82304e-09
-1.84524e-09
-1.86707e-09
-1.88945e-09
-1.91261e-09
-1.93661e-09
-1.96199e-09
-1.98944e-09
-2.02042e-09
-2.05549e-09
-2.09841e-09
-2.15169e-09
-2.22064e-09
-2.3123e-09
-2.43635e-09
-2.60637e-09
-2.84256e-09
-3.17163e-09
-3.63238e-09
-4.28124e-09
-5.18173e-09
-6.43994e-09
-8.18165e-09
-1.0579e-08
-1.38314e-08
-1.80929e-08
-2.40138e-08
-1.16489e-09
-6.83616e-10
-6.07137e-10
-6.28234e-10
-6.60151e-10
-6.9374e-10
-7.27946e-10
-7.62783e-10
-7.95185e-10
-8.26651e-10
-8.55791e-10
-8.83239e-10
-9.09349e-10
-9.34487e-10
-9.58656e-10
-9.82252e-10
-1.00536e-09
-1.02877e-09
-1.05094e-09
-1.07338e-09
-1.09638e-09
-1.11802e-09
-1.14041e-09
-1.16239e-09
-1.18456e-09
-1.20668e-09
-1.22856e-09
-1.25078e-09
-1.2729e-09
-1.29483e-09
-1.31722e-09
-1.33927e-09
-1.36134e-09
-1.38286e-09
-1.40544e-09
-1.42751e-09
-1.44975e-09
-1.47171e-09
-1.49397e-09
-1.51542e-09
-1.53805e-09
-1.55975e-09
-1.5817e-09
-1.60373e-09
-1.62525e-09
-1.64707e-09
-1.66914e-09
-1.69073e-09
-1.7127e-09
-1.73368e-09
-1.75599e-09
-1.77788e-09
-1.79961e-09
-1.82122e-09
-1.84325e-09
-1.86538e-09
-1.8878e-09
-1.91111e-09
-1.93529e-09
-1.96029e-09
-1.98807e-09
-2.0189e-09
-2.05425e-09
-2.09668e-09
-2.15128e-09
-2.22101e-09
-2.31357e-09
-2.43874e-09
-2.61101e-09
-2.85081e-09
-3.18504e-09
-3.65347e-09
-4.31113e-09
-5.22839e-09
-6.50716e-09
-8.27571e-09
-1.07038e-08
-1.39975e-08
-1.83223e-08
-2.38775e-08
-4.72284e-10
6.8125e-10
-4.80783e-10
-5.99497e-10
-6.26746e-10
-6.58448e-10
-6.93028e-10
-7.28413e-10
-7.62787e-10
-7.96088e-10
-8.27279e-10
-8.57115e-10
-8.8474e-10
-9.10745e-10
-9.35569e-10
-9.59827e-10
-9.83515e-10
-1.007e-09
-1.02897e-09
-1.05193e-09
-1.07456e-09
-1.09646e-09
-1.11903e-09
-1.14124e-09
-1.16356e-09
-1.18544e-09
-1.20782e-09
-1.22996e-09
-1.25171e-09
-1.27375e-09
-1.29585e-09
-1.31758e-09
-1.33969e-09
-1.36148e-09
-1.3842e-09
-1.40587e-09
-1.42767e-09
-1.44951e-09
-1.47133e-09
-1.49324e-09
-1.51514e-09
-1.53737e-09
-1.55938e-09
-1.58158e-09
-1.60371e-09
-1.62621e-09
-1.64817e-09
-1.66925e-09
-1.69132e-09
-1.71325e-09
-1.73527e-09
-1.75711e-09
-1.77864e-09
-1.80032e-09
-1.82252e-09
-1.84407e-09
-1.86636e-09
-1.88887e-09
-1.91172e-09
-1.93547e-09
-1.96068e-09
-1.98836e-09
-2.01947e-09
-2.05573e-09
-2.09943e-09
-2.15313e-09
-2.22296e-09
-2.31639e-09
-2.44342e-09
-2.61754e-09
-2.85925e-09
-3.19757e-09
-3.67182e-09
-4.33708e-09
-5.26652e-09
-6.5608e-09
-8.35106e-09
-1.08061e-08
-1.41366e-08
-1.86922e-08
-2.57666e-08
-3.0333e-08
-2.31379e-10
-1.24275e-09
-6.97582e-10
-6.03339e-10
-6.25083e-10
-6.56285e-10
-6.91292e-10
-7.2704e-10
-7.61722e-10
-7.94929e-10
-8.26617e-10
-8.56274e-10
-8.83367e-10
-9.09551e-10
-9.34675e-10
-9.58914e-10
-9.82544e-10
-1.00567e-09
-1.02853e-09
-1.0513e-09
-1.07366e-09
-1.09614e-09
-1.11843e-09
-1.14057e-09
-1.16264e-09
-1.18482e-09
-1.207e-09
-1.22885e-09
-1.25109e-09
-1.2731e-09
-1.2951e-09
-1.31707e-09
-1.33926e-09
-1.3611e-09
-1.38334e-09
-1.40516e-09
-1.42691e-09
-1.44888e-09
-1.47071e-09
-1.49278e-09
-1.51495e-09
-1.53702e-09
-1.55895e-09
-1.58098e-09
-1.60287e-09
-1.6252e-09
-1.64706e-09
-1.66871e-09
-1.69073e-09
-1.71269e-09
-1.73429e-09
-1.75607e-09
-1.77793e-09
-1.79969e-09
-1.82146e-09
-1.84337e-09
-1.86553e-09
-1.88786e-09
-1.91101e-09
-1.9349e-09
-1.96027e-09
-1.98798e-09
-2.01901e-09
-2.05491e-09
-2.0983e-09
-2.15276e-09
-2.22324e-09
-2.31701e-09
-2.4448e-09
-2.62029e-09
-2.8639e-09
-3.20517e-09
-3.6834e-09
-4.35418e-09
-5.29204e-09
-6.59845e-09
-8.4043e-09
-1.08786e-08
-1.42301e-08
-1.86181e-08
-2.41237e-08
-3.05817e-08
-3.81273e-08
-2.76905e-11
3.08835e-10
-4.88689e-10
-5.95941e-10
-6.24263e-10
-6.55136e-10
-6.90462e-10
-7.26361e-10
-7.6134e-10
-7.94758e-10
-8.26665e-10
-8.56303e-10
-8.83878e-10
-9.0968e-10
-9.34691e-10
-9.58995e-10
-9.8253e-10
-1.00576e-09
-1.02865e-09
-1.05121e-09
-1.07373e-09
-1.09612e-09
-1.11841e-09
-1.14063e-09
-1.16263e-09
-1.18487e-09
-1.20697e-09
-1.22904e-09
-1.251e-09
-1.27316e-09
-1.29507e-09
-1.31709e-09
-1.33916e-09
-1.36112e-09
-1.38301e-09
-1.40475e-09
-1.42663e-09
-1.44867e-09
-1.47063e-09
-1.49269e-09
-1.51494e-09
-1.5371e-09
-1.55896e-09
-1.58091e-09
-1.60279e-09
-1.62486e-09
-1.64685e-09
-1.6686e-09
-1.69072e-09
-1.71253e-09
-1.73429e-09
-1.75614e-09
-1.77791e-09
-1.79962e-09
-1.82144e-09
-1.84327e-09
-1.86543e-09
-1.88782e-09
-1.91078e-09
-1.93483e-09
-1.96007e-09
-1.9878e-09
-2.01873e-09
-2.05475e-09
-2.09827e-09
-2.15265e-09
-2.22312e-09
-2.31719e-09
-2.44524e-09
-2.62116e-09
-2.86594e-09
-3.20833e-09
-3.68873e-09
-4.36262e-09
-5.30533e-09
-6.61868e-09
-8.4337e-09
-1.09195e-08
-1.42902e-08
-1.8893e-08
-2.56694e-08
-3.08235e-08
-3.82772e-08
-2.68137e-10
-7.08007e-10
-6.1668e-10
-5.99791e-10
-6.23455e-10
-6.54361e-10
-6.89809e-10
-7.25999e-10
-7.61056e-10
-7.94502e-10
-8.26523e-10
-8.56138e-10
-8.8357e-10
-9.09534e-10
-9.34501e-10
-9.58808e-10
-9.82355e-10
-1.00567e-09
-1.02857e-09
-1.05106e-09
-1.07361e-09
-1.09599e-09
-1.11825e-09
-1.1405e-09
-1.16255e-09
-1.18475e-09
-1.20678e-09
-1.22893e-09
-1.25093e-09
-1.27297e-09
-1.29491e-09
-1.317e-09
-1.33899e-09
-1.36083e-09
-1.38274e-09
-1.40452e-09
-1.42648e-09
-1.44841e-09
-1.47033e-09
-1.49232e-09
-1.51414e-09
-1.53594e-09
-1.55798e-09
-1.58018e-09
-1.60227e-09
-1.62447e-09
-1.64656e-09
-1.66846e-09
-1.69055e-09
-1.71242e-09
-1.73415e-09
-1.75592e-09
-1.77771e-09
-1.79949e-09
-1.82124e-09
-1.84307e-09
-1.86517e-09
-1.88744e-09
-1.91049e-09
-1.93443e-09
-1.95977e-09
-1.98734e-09
-2.01825e-09
-2.05415e-09
-2.09748e-09
-2.15188e-09
-2.22217e-09
-2.31625e-09
-2.44397e-09
-2.61983e-09
-2.86439e-09
-3.207e-09
-3.68748e-09
-4.36176e-09
-5.30561e-09
-6.62089e-09
-8.43883e-09
-1.09282e-08
-1.43023e-08
-1.87985e-08
-2.4758e-08
-3.08512e-08
-3.84073e-08
-5.33809e-10
-7.09606e-10
-6.1387e-10
-5.99484e-10
-6.23371e-10
-6.54335e-10
-6.89792e-10
-7.26002e-10
-7.6107e-10
-7.94521e-10
-8.2649e-10
-8.56155e-10
-8.83596e-10
-9.09498e-10
-9.34536e-10
-9.58832e-10
-9.82373e-10
-1.00576e-09
-1.0284e-09
-1.05099e-09
-1.07362e-09
-1.09598e-09
-1.11828e-09
-1.14053e-09
-1.16252e-09
-1.18472e-09
-1.20678e-09
-1.22882e-09
-1.25096e-09
-1.27298e-09
-1.29496e-09
-1.31702e-09
-1.33899e-09
-1.36092e-09
-1.38277e-09
-1.40466e-09
-1.42671e-09
-1.44867e-09
-1.47071e-09
-1.49288e-09
-1.51481e-09
-1.53665e-09
-1.55854e-09
-1.5805e-09
-1.60245e-09
-1.62458e-09
-1.64662e-09
-1.66849e-09
-1.69056e-09
-1.71241e-09
-1.73417e-09
-1.75585e-09
-1.7777e-09
-1.79944e-09
-1.82114e-09
-1.84299e-09
-1.86503e-09
-1.88731e-09
-1.9103e-09
-1.93422e-09
-1.95948e-09
-1.98693e-09
-2.0177e-09
-2.05347e-09
-2.09666e-09
-2.15074e-09
-2.22074e-09
-2.31433e-09
-2.44132e-09
-2.61637e-09
-2.85998e-09
-3.2011e-09
-3.67982e-09
-4.35177e-09
-5.29287e-09
-6.60465e-09
-8.41888e-09
-1.09036e-08
-1.42729e-08
-1.87615e-08
-2.47235e-08
-3.07916e-08
-3.84602e-08
-6.90031e-10
2.51408e-10
-4.90403e-10
-5.97594e-10
-6.24244e-10
-6.55254e-10
-6.90398e-10
-7.26358e-10
-7.61317e-10
-7.9477e-10
-8.26577e-10
-8.56321e-10
-8.83929e-10
-9.09837e-10
-9.34798e-10
-9.59219e-10
-9.82573e-10
-1.00585e-09
-1.02902e-09
-1.05121e-09
-1.07366e-09
-1.09607e-09
-1.11842e-09
-1.14075e-09
-1.16267e-09
-1.18514e-09
-1.2069e-09
-1.22934e-09
-1.25104e-09
-1.27307e-09
-1.29529e-09
-1.31717e-09
-1.3395e-09
-1.36116e-09
-1.38299e-09
-1.40474e-09
-1.42668e-09
-1.4485e-09
-1.47032e-09
-1.49231e-09
-1.51447e-09
-1.53654e-09
-1.5585e-09
-1.58043e-09
-1.60249e-09
-1.62471e-09
-1.64689e-09
-1.66872e-09
-1.69091e-09
-1.71253e-09
-1.73448e-09
-1.75595e-09
-1.77773e-09
-1.79949e-09
-1.82128e-09
-1.84322e-09
-1.86507e-09
-1.88734e-09
-1.91026e-09
-1.93406e-09
-1.95951e-09
-1.98651e-09
-2.01717e-09
-2.05268e-09
-2.09552e-09
-2.14918e-09
-2.21884e-09
-2.31127e-09
-2.43723e-09
-2.61079e-09
-2.85232e-09
-3.19053e-09
-3.66563e-09
-4.33256e-09
-5.26699e-09
-6.56993e-09
-8.37276e-09
-1.08458e-08
-1.42047e-08
-1.88128e-08
-2.56099e-08
-3.0686e-08
-3.83429e-08
-7.22023e-10
-1.21159e-09
-7.00258e-10
-6.02754e-10
-6.25053e-10
-6.56253e-10
-6.91235e-10
-7.27106e-10
-7.61641e-10
-7.94986e-10
-8.26562e-10
-8.56178e-10
-8.83453e-10
-9.09342e-10
-9.34693e-10
-9.58773e-10
-9.82471e-10
-1.00583e-09
-1.02816e-09
-1.05113e-09
-1.07364e-09
-1.09599e-09
-1.11828e-09
-1.14048e-09
-1.16263e-09
-1.18447e-09
-1.20674e-09
-1.22855e-09
-1.2509e-09
-1.27301e-09
-1.29473e-09
-1.31707e-09
-1.33868e-09
-1.36115e-09
-1.38313e-09
-1.40513e-09
-1.42712e-09
-1.44894e-09
-1.47085e-09
-1.49282e-09
-1.5148e-09
-1.53687e-09
-1.55896e-09
-1.58078e-09
-1.60303e-09
-1.62503e-09
-1.64705e-09
-1.66873e-09
-1.69039e-09
-1.71246e-09
-1.73382e-09
-1.75571e-09
-1.77768e-09
-1.79911e-09
-1.82091e-09
-1.84243e-09
-1.86463e-09
-1.88685e-09
-1.90965e-09
-1.93356e-09
-1.95827e-09
-1.98579e-09
-2.01613e-09
-2.05139e-09
-2.09382e-09
-2.14691e-09
-2.21554e-09
-2.30711e-09
-2.43157e-09
-2.60277e-09
-2.84158e-09
-3.17576e-09
-3.64526e-09
-4.30445e-09
-5.2286e-09
-6.51841e-09
-8.30394e-09
-1.07564e-08
-1.40843e-08
-1.84409e-08
-2.39142e-08
-3.04634e-08
-3.81554e-08
-5.32024e-10
6.62217e-10
-4.87192e-10
-5.99434e-10
-6.26555e-10
-6.5811e-10
-6.92984e-10
-7.28308e-10
-7.63028e-10
-7.95929e-10
-8.27616e-10
-8.56967e-10
-8.84578e-10
-9.10657e-10
-9.35758e-10
-9.59897e-10
-9.83601e-10
-1.00671e-09
-1.02958e-09
-1.05205e-09
-1.07395e-09
-1.09643e-09
-1.11927e-09
-1.1413e-09
-1.16352e-09
-1.18576e-09
-1.20776e-09
-1.22997e-09
-1.25199e-09
-1.27389e-09
-1.29595e-09
-1.3179e-09
-1.34029e-09
-1.36208e-09
-1.38406e-09
-1.40625e-09
-1.42853e-09
-1.44974e-09
-1.47151e-09
-1.4934e-09
-1.51542e-09
-1.53745e-09
-1.55972e-09
-1.58171e-09
-1.60413e-09
-1.62616e-09
-1.64813e-09
-1.66973e-09
-1.69161e-09
-1.71339e-09
-1.73503e-09
-1.75687e-09
-1.77833e-09
-1.80019e-09
-1.8218e-09
-1.84375e-09
-1.86552e-09
-1.88756e-09
-1.90978e-09
-1.93406e-09
-1.95908e-09
-1.9858e-09
-2.01605e-09
-2.05103e-09
-2.093e-09
-2.14544e-09
-2.21312e-09
-2.30312e-09
-2.42557e-09
-2.59345e-09
-2.82808e-09
-3.15704e-09
-3.61927e-09
-4.26803e-09
-5.17855e-09
-6.44953e-09
-8.21208e-09
-1.06363e-08
-1.39346e-08
-1.8463e-08
-2.55303e-08
-3.02234e-08
-3.79115e-08
-4.50468e-10
-1.17023e-09
-6.79131e-10
-6.06662e-10
-6.27787e-10
-6.5949e-10
-6.93709e-10
-7.28336e-10
-7.6217e-10
-7.9534e-10
-8.26532e-10
-8.56139e-10
-8.83466e-10
-9.09397e-10
-9.34327e-10
-9.58424e-10
-9.81904e-10
-1.00545e-09
-1.02828e-09
-1.05066e-09
-1.07358e-09
-1.09612e-09
-1.11758e-09
-1.14014e-09
-1.16219e-09
-1.18451e-09
-1.20653e-09
-1.22854e-09
-1.25039e-09
-1.27242e-09
-1.2945e-09
-1.31657e-09
-1.33863e-09
-1.36077e-09
-1.38291e-09
-1.40491e-09
-1.42709e-09
-1.44964e-09
-1.47138e-09
-1.49349e-09
-1.51533e-09
-1.53724e-09
-1.55968e-09
-1.58155e-09
-1.60295e-09
-1.62483e-09
-1.6464e-09
-1.66831e-09
-1.69009e-09
-1.71221e-09
-1.73365e-09
-1.75468e-09
-1.77693e-09
-1.79864e-09
-1.82043e-09
-1.84159e-09
-1.86398e-09
-1.88627e-09
-1.90932e-09
-1.93255e-09
-1.95723e-09
-1.9838e-09
-2.01369e-09
-2.0483e-09
-2.0896e-09
-2.14057e-09
-2.20718e-09
-2.29551e-09
-2.41576e-09
-2.58155e-09
-2.81134e-09
-3.13399e-09
-3.58732e-09
-4.22371e-09
-5.11704e-09
-6.36576e-09
-8.09941e-09
-1.04881e-08
-1.37405e-08
-1.80196e-08
-2.35583e-08
-2.97785e-08
-7.69611e-10
-6.99624e-10
-6.10018e-10
-6.27703e-10
-6.6331e-10
-6.96951e-10
-7.31335e-10
-7.64869e-10
-7.97337e-10
-8.28251e-10
-8.57156e-10
-8.84773e-10
-9.10896e-10
-9.36449e-10
-9.60328e-10
-9.84496e-10
-1.0071e-09
-1.02977e-09
-1.05246e-09
-1.07556e-09
-1.09771e-09
-1.1203e-09
-1.14226e-09
-1.16394e-09
-1.18596e-09
-1.20811e-09
-1.23021e-09
-1.25241e-09
-1.27464e-09
-1.29636e-09
-1.31865e-09
-1.34052e-09
-1.36248e-09
-1.38441e-09
-1.40657e-09
-1.42873e-09
-1.45123e-09
-1.4736e-09
-1.49522e-09
-1.5172e-09
-1.53948e-09
-1.56121e-09
-1.58309e-09
-1.60446e-09
-1.62652e-09
-1.64882e-09
-1.6701e-09
-1.69217e-09
-1.7137e-09
-1.73526e-09
-1.75799e-09
-1.77912e-09
-1.8002e-09
-1.82205e-09
-1.84437e-09
-1.8656e-09
-1.88763e-09
-1.91019e-09
-1.93421e-09
-1.95793e-09
-1.98522e-09
-2.01432e-09
-2.04821e-09
-2.08879e-09
-2.13998e-09
-2.20486e-09
-2.29149e-09
-2.40831e-09
-2.57119e-09
-2.79447e-09
-3.11053e-09
-3.5534e-09
-4.17514e-09
-5.04834e-09
-6.27102e-09
-7.97039e-09
-1.03199e-08
-1.35222e-08
-1.77343e-08
-2.36177e-08
1.31635e-12
-8.1711e-10
-6.00702e-10
-6.2022e-10
-6.57729e-10
-6.93522e-10
-7.28756e-10
-7.62303e-10
-7.95603e-10
-8.26631e-10
-8.5621e-10
-8.8367e-10
-9.09627e-10
-9.34367e-10
-9.5887e-10
-9.81748e-10
-1.00578e-09
-1.02869e-09
-1.05114e-09
-1.07402e-09
-1.09614e-09
-1.11786e-09
-1.1398e-09
-1.16262e-09
-1.18518e-09
-1.20676e-09
-1.2288e-09
-1.25085e-09
-1.27166e-09
-1.29488e-09
-1.31748e-09
-1.33914e-09
-1.36112e-09
-1.38343e-09
-1.4052e-09
-1.42745e-09
-1.45012e-09
-1.4719e-09
-1.49375e-09
-1.51547e-09
-1.53757e-09
-1.55892e-09
-1.58145e-09
-1.60323e-09
-1.62514e-09
-1.64604e-09
-1.66882e-09
-1.69036e-09
-1.71271e-09
-1.73398e-09
-1.75529e-09
-1.77653e-09
-1.79903e-09
-1.82104e-09
-1.84219e-09
-1.86404e-09
-1.88611e-09
-1.90881e-09
-1.93128e-09
-1.95629e-09
-1.98271e-09
-2.01177e-09
-2.04517e-09
-2.08549e-09
-2.13343e-09
-2.19805e-09
-2.28165e-09
-2.39556e-09
-2.5536e-09
-2.76887e-09
-3.07766e-09
-3.50929e-09
-4.11322e-09
-4.96854e-09
-6.16253e-09
-7.82288e-09
-1.01318e-08
-1.32804e-08
-1.7262e-08
-2.40872e-08
4.32019e-11
-6.12485e-10
-6.01518e-10
-6.28884e-10
-6.59779e-10
-6.95379e-10
-7.30178e-10
-7.63462e-10
-7.95772e-10
-8.26211e-10
-8.55014e-10
-8.83038e-10
-9.09387e-10
-9.34772e-10
-9.58967e-10
-9.82013e-10
-1.00567e-09
-1.02844e-09
-1.05193e-09
-1.07312e-09
-1.09604e-09
-1.11824e-09
-1.14028e-09
-1.16178e-09
-1.18475e-09
-1.20664e-09
-1.22895e-09
-1.25032e-09
-1.27238e-09
-1.2953e-09
-1.31679e-09
-1.33889e-09
-1.3602e-09
-1.3831e-09
-1.40507e-09
-1.42696e-09
-1.4485e-09
-1.47071e-09
-1.49299e-09
-1.51489e-09
-1.53633e-09
-1.55888e-09
-1.58052e-09
-1.60301e-09
-1.62516e-09
-1.64632e-09
-1.66893e-09
-1.69029e-09
-1.7124e-09
-1.73455e-09
-1.75606e-09
-1.77787e-09
-1.7996e-09
-1.82118e-09
-1.84313e-09
-1.86593e-09
-1.88751e-09
-1.90962e-09
-1.93338e-09
-1.95903e-09
-1.98505e-09
-2.014e-09
-2.04747e-09
-2.0865e-09
-2.13421e-09
-2.19553e-09
-2.27456e-09
-2.38055e-09
-2.52923e-09
-2.72997e-09
-3.00434e-09
-3.39828e-09
-3.94236e-09
-4.70451e-09
-5.76958e-09
-7.25718e-09
-9.33178e-09
-1.22095e-08
-1.6143e-08
-2.24216e-08
-9.00732e-10
-9.8413e-10
-5.70212e-10
-6.00249e-10
-6.32891e-10
-6.65528e-10
-6.98606e-10
-7.3226e-10
-7.65049e-10
-7.96409e-10
-8.27264e-10
-8.56294e-10
-8.83729e-10
-9.11005e-10
-9.35443e-10
-9.60064e-10
-9.84021e-10
-1.00667e-09
-1.02971e-09
-1.05243e-09
-1.07489e-09
-1.09667e-09
-1.1193e-09
-1.14162e-09
-1.1641e-09
-1.18621e-09
-1.20776e-09
-1.22977e-09
-1.25218e-09
-1.27402e-09
-1.29629e-09
-1.31845e-09
-1.33997e-09
-1.3622e-09
-1.38407e-09
-1.40641e-09
-1.42787e-09
-1.45048e-09
-1.4726e-09
-1.49392e-09
-1.51619e-09
-1.53889e-09
-1.56005e-09
-1.58195e-09
-1.60469e-09
-1.62598e-09
-1.64812e-09
-1.67008e-09
-1.69186e-09
-1.71409e-09
-1.7351e-09
-1.75684e-09
-1.7791e-09
-1.80091e-09
-1.82269e-09
-1.84458e-09
-1.86624e-09
-1.88893e-09
-1.91201e-09
-1.93534e-09
-1.96032e-09
-1.98783e-09
-2.01673e-09
-2.04989e-09
-2.09019e-09
-2.13969e-09
-2.20254e-09
-2.28483e-09
-2.39548e-09
-2.54654e-09
-2.75503e-09
-3.04725e-09
-3.44831e-09
-4.01426e-09
-4.80586e-09
-5.91217e-09
-7.455e-09
-9.59872e-09
-1.25654e-08
-1.66538e-08
-2.18988e-08
-2.70692e-08
-4.0828e-10
3.96964e-10
-5.30019e-10
-5.95681e-10
-6.29495e-10
-6.61999e-10
-6.95176e-10
-7.28714e-10
-7.61761e-10
-7.94441e-10
-8.25232e-10
-8.5516e-10
-8.83543e-10
-9.09331e-10
-9.34773e-10
-9.59229e-10
-9.82388e-10
-1.00624e-09
-1.02874e-09
-1.05108e-09
-1.07409e-09
-1.09641e-09
-1.11874e-09
-1.14071e-09
-1.16244e-09
-1.18455e-09
-1.20668e-09
-1.2292e-09
-1.25084e-09
-1.27291e-09
-1.29501e-09
-1.31651e-09
-1.33904e-09
-1.36106e-09
-1.38307e-09
-1.40493e-09
-1.42773e-09
-1.44938e-09
-1.47106e-09
-1.49338e-09
-1.51532e-09
-1.5376e-09
-1.55934e-09
-1.58132e-09
-1.60255e-09
-1.62531e-09
-1.64696e-09
-1.66917e-09
-1.69083e-09
-1.71284e-09
-1.73467e-09
-1.75596e-09
-1.77816e-09
-1.79984e-09
-1.8222e-09
-1.84344e-09
-1.86514e-09
-1.88779e-09
-1.91084e-09
-1.93494e-09
-1.95983e-09
-1.9863e-09
-2.01633e-09
-2.0505e-09
-2.09159e-09
-2.14119e-09
-2.20663e-09
-2.29044e-09
-2.40535e-09
-2.56205e-09
-2.77802e-09
-3.07654e-09
-3.49688e-09
-4.08366e-09
-4.90688e-09
-6.05491e-09
-7.65274e-09
-9.86597e-09
-1.29169e-08
-1.71267e-08
-2.37603e-08
-2.79246e-08
-3.38177e-08
-4.16514e-10
-5.92968e-10
-5.51203e-10
-5.94156e-10
-6.26146e-10
-6.59267e-10
-6.93293e-10
-7.26681e-10
-7.61633e-10
-7.94072e-10
-8.25407e-10
-8.55611e-10
-8.82519e-10
-9.09706e-10
-9.35346e-10
-9.59209e-10
-9.83502e-10
-1.00579e-09
-1.02948e-09
-1.05166e-09
-1.07401e-09
-1.09628e-09
-1.11797e-09
-1.14145e-09
-1.16375e-09
-1.18497e-09
-1.20689e-09
-1.22841e-09
-1.25186e-09
-1.27383e-09
-1.29546e-09
-1.31682e-09
-1.33922e-09
-1.36202e-09
-1.38446e-09
-1.40593e-09
-1.42633e-09
-1.44978e-09
-1.47165e-09
-1.49292e-09
-1.51481e-09
-1.53791e-09
-1.55931e-09
-1.5814e-09
-1.60426e-09
-1.6245e-09
-1.6469e-09
-1.66997e-09
-1.69146e-09
-1.71319e-09
-1.73388e-09
-1.75653e-09
-1.77853e-09
-1.80098e-09
-1.82111e-09
-1.84396e-09
-1.86613e-09
-1.88792e-09
-1.91175e-09
-1.93432e-09
-1.96038e-09
-1.98729e-09
-2.01686e-09
-2.05194e-09
-2.09253e-09
-2.14545e-09
-2.21138e-09
-2.29729e-09
-2.41478e-09
-2.57395e-09
-2.79599e-09
-3.10756e-09
-3.54067e-09
-4.14742e-09
-4.99937e-09
-6.18532e-09
-7.83413e-09
-1.011e-08
-1.32355e-08
-1.75025e-08
-2.31958e-08
-2.84321e-08
-3.45153e-08
-4.68294e-10
-4.02887e-10
-5.04018e-10
-5.9106e-10
-6.24458e-10
-6.58976e-10
-6.94888e-10
-7.30736e-10
-7.63823e-10
-7.9668e-10
-8.27746e-10
-8.56467e-10
-8.85253e-10
-9.10373e-10
-9.35773e-10
-9.60777e-10
-9.83736e-10
-1.00789e-09
-1.02979e-09
-1.05205e-09
-1.07465e-09
-1.09734e-09
-1.12064e-09
-1.14168e-09
-1.1637e-09
-1.18542e-09
-1.2087e-09
-1.23104e-09
-1.25154e-09
-1.27406e-09
-1.29605e-09
-1.31901e-09
-1.34082e-09
-1.36241e-09
-1.38363e-09
-1.40651e-09
-1.43008e-09
-1.4501e-09
-1.47248e-09
-1.49492e-09
-1.51746e-09
-1.5386e-09
-1.56106e-09
-1.58186e-09
-1.60436e-09
-1.62755e-09
-1.64895e-09
-1.66956e-09
-1.69153e-09
-1.71372e-09
-1.73674e-09
-1.75795e-09
-1.77891e-09
-1.80037e-09
-1.82378e-09
-1.84417e-09
-1.86648e-09
-1.88981e-09
-1.91211e-09
-1.93694e-09
-1.96073e-09
-1.98818e-09
-2.01907e-09
-2.05341e-09
-2.09664e-09
-2.14782e-09
-2.21424e-09
-2.30446e-09
-2.42386e-09
-2.58952e-09
-2.81857e-09
-3.13831e-09
-3.58486e-09
-4.20947e-09
-5.08651e-09
-6.30706e-09
-8.00258e-09
-1.03346e-08
-1.35269e-08
-1.7914e-08
-2.37921e-08
-2.87857e-08
-3.70654e-08
-5.25217e-10
-9.172e-10
-5.76829e-10
-6.01275e-10
-6.29491e-10
-6.64693e-10
-7.00399e-10
-7.35119e-10
-7.68314e-10
-8.00011e-10
-8.30809e-10
-8.60431e-10
-8.86834e-10
-9.12802e-10
-9.37755e-10
-9.61734e-10
-9.8539e-10
-1.00843e-09
-1.03146e-09
-1.0549e-09
-1.07624e-09
-1.0994e-09
-1.12129e-09
-1.14341e-09
-1.16554e-09
-1.1878e-09
-1.20922e-09
-1.23165e-09
-1.25422e-09
-1.27564e-09
-1.29733e-09
-1.31935e-09
-1.34256e-09
-1.36392e-09
-1.38683e-09
-1.4077e-09
-1.43071e-09
-1.45344e-09
-1.47453e-09
-1.49776e-09
-1.51929e-09
-1.54167e-09
-1.56363e-09
-1.58525e-09
-1.6065e-09
-1.62829e-09
-1.64947e-09
-1.67242e-09
-1.69404e-09
-1.71533e-09
-1.73738e-09
-1.75862e-09
-1.77999e-09
-1.80348e-09
-1.82402e-09
-1.84668e-09
-1.86787e-09
-1.89028e-09
-1.91375e-09
-1.93714e-09
-1.96342e-09
-1.99034e-09
-2.02129e-09
-2.05551e-09
-2.09846e-09
-2.15076e-09
-2.22011e-09
-2.31009e-09
-2.43394e-09
-2.60323e-09
-2.83715e-09
-3.16512e-09
-3.62313e-09
-4.26482e-09
-5.16159e-09
-6.41101e-09
-8.1429e-09
-1.05247e-08
-1.37678e-08
-1.81465e-08
-2.36763e-08
-2.951e-08
-3.75409e-08
-5.46582e-10
-9.89061e-10
-6.13318e-10
-6.03987e-10
-6.31182e-10
-6.6524e-10
-7.00682e-10
-7.34856e-10
-7.67887e-10
-7.99053e-10
-8.29994e-10
-8.59234e-10
-8.86279e-10
-9.11736e-10
-9.36632e-10
-9.60815e-10
-9.84031e-10
-1.00744e-09
-1.0302e-09
-1.05331e-09
-1.07512e-09
-1.09817e-09
-1.11929e-09
-1.14177e-09
-1.16408e-09
-1.18572e-09
-1.20863e-09
-1.23025e-09
-1.25201e-09
-1.27436e-09
-1.29655e-09
-1.31909e-09
-1.34069e-09
-1.36333e-09
-1.38454e-09
-1.40742e-09
-1.42938e-09
-1.45192e-09
-1.47355e-09
-1.49618e-09
-1.51805e-09
-1.54025e-09
-1.5622e-09
-1.58388e-09
-1.60533e-09
-1.62713e-09
-1.64873e-09
-1.67094e-09
-1.69226e-09
-1.71363e-09
-1.73594e-09
-1.75784e-09
-1.7792e-09
-1.80121e-09
-1.82313e-09
-1.84451e-09
-1.86692e-09
-1.88945e-09
-1.91197e-09
-1.93692e-09
-1.96153e-09
-1.98935e-09
-2.02045e-09
-2.05529e-09
-2.09824e-09
-2.15196e-09
-2.22089e-09
-2.31375e-09
-2.43827e-09
-2.60998e-09
-2.84856e-09
-3.18161e-09
-3.64789e-09
-4.30157e-09
-5.21417e-09
-6.48567e-09
-8.24599e-09
-1.06643e-08
-1.39454e-08
-1.83306e-08
-2.38685e-08
-3.00225e-08
-3.79311e-08
-5.4442e-10
-7.00941e-10
-5.3509e-10
-6.00029e-10
-6.30948e-10
-6.65573e-10
-7.00662e-10
-7.34926e-10
-7.67895e-10
-7.99456e-10
-8.30414e-10
-8.59778e-10
-8.87721e-10
-9.13374e-10
-9.38112e-10
-9.62317e-10
-9.85671e-10
-1.00894e-09
-1.03159e-09
-1.05357e-09
-1.07638e-09
-1.09844e-09
-1.12085e-09
-1.1433e-09
-1.16552e-09
-1.18748e-09
-1.20969e-09
-1.23179e-09
-1.25389e-09
-1.27571e-09
-1.29774e-09
-1.3195e-09
-1.34179e-09
-1.3636e-09
-1.38624e-09
-1.40765e-09
-1.42967e-09
-1.45159e-09
-1.47355e-09
-1.49568e-09
-1.51764e-09
-1.53984e-09
-1.56189e-09
-1.58367e-09
-1.60546e-09
-1.62754e-09
-1.65004e-09
-1.67115e-09
-1.69364e-09
-1.71515e-09
-1.7363e-09
-1.75891e-09
-1.78029e-09
-1.80268e-09
-1.82427e-09
-1.84612e-09
-1.86802e-09
-1.89057e-09
-1.91337e-09
-1.93718e-09
-1.96275e-09
-1.99047e-09
-2.02078e-09
-2.05675e-09
-2.10041e-09
-2.15367e-09
-2.22378e-09
-2.31722e-09
-2.44322e-09
-2.61666e-09
-2.85815e-09
-3.19529e-09
-3.66755e-09
-4.3295e-09
-5.25453e-09
-6.54241e-09
-8.32466e-09
-1.07708e-08
-1.409e-08
-1.8577e-08
-2.43516e-08
-3.18199e-08
-3.83826e-08
-5.50671e-10
-9.93064e-10
-6.51209e-10
-6.02702e-10
-6.30366e-10
-6.65023e-10
-6.99974e-10
-7.34261e-10
-7.67197e-10
-7.98868e-10
-8.29977e-10
-8.59481e-10
-8.87069e-10
-9.12851e-10
-9.3762e-10
-9.612e-10
-9.84776e-10
-1.00809e-09
-1.03077e-09
-1.05358e-09
-1.07561e-09
-1.09834e-09
-1.1203e-09
-1.14248e-09
-1.16487e-09
-1.18642e-09
-1.20906e-09
-1.2305e-09
-1.25311e-09
-1.27478e-09
-1.29715e-09
-1.31918e-09
-1.34129e-09
-1.36336e-09
-1.38524e-09
-1.40696e-09
-1.429e-09
-1.45089e-09
-1.47299e-09
-1.49503e-09
-1.51699e-09
-1.53915e-09
-1.5612e-09
-1.58294e-09
-1.60471e-09
-1.62695e-09
-1.64912e-09
-1.67089e-09
-1.69283e-09
-1.71463e-09
-1.73623e-09
-1.75819e-09
-1.77951e-09
-1.80188e-09
-1.8233e-09
-1.84539e-09
-1.8673e-09
-1.88961e-09
-1.91268e-09
-1.9368e-09
-1.96219e-09
-1.98981e-09
-2.02055e-09
-2.05619e-09
-2.09914e-09
-2.15362e-09
-2.22421e-09
-2.31793e-09
-2.44485e-09
-2.62015e-09
-2.86357e-09
-3.20373e-09
-3.68023e-09
-4.34817e-09
-5.28173e-09
-6.58151e-09
-8.37943e-09
-1.08445e-08
-1.41848e-08
-1.85976e-08
-2.41485e-08
-3.19438e-08
-3.88019e-08
-4.91012e-10
-4.37525e-10
-5.3216e-10
-5.97869e-10
-6.30633e-10
-6.64788e-10
-6.99617e-10
-7.33818e-10
-7.66863e-10
-7.98706e-10
-8.29904e-10
-8.59596e-10
-8.87295e-10
-9.13199e-10
-9.37756e-10
-9.61941e-10
-9.85547e-10
-1.00817e-09
-1.03132e-09
-1.0537e-09
-1.07572e-09
-1.0984e-09
-1.12044e-09
-1.14295e-09
-1.1649e-09
-1.187e-09
-1.20913e-09
-1.23118e-09
-1.25315e-09
-1.27533e-09
-1.29728e-09
-1.3192e-09
-1.34132e-09
-1.36331e-09
-1.38493e-09
-1.40678e-09
-1.42872e-09
-1.45055e-09
-1.47275e-09
-1.49481e-09
-1.51678e-09
-1.53887e-09
-1.56092e-09
-1.58251e-09
-1.60439e-09
-1.62664e-09
-1.64899e-09
-1.67089e-09
-1.69285e-09
-1.71459e-09
-1.73633e-09
-1.75832e-09
-1.78019e-09
-1.80179e-09
-1.82349e-09
-1.8453e-09
-1.86744e-09
-1.89011e-09
-1.91273e-09
-1.93696e-09
-1.96211e-09
-1.98978e-09
-2.02041e-09
-2.0564e-09
-2.10017e-09
-2.15388e-09
-2.22474e-09
-2.31833e-09
-2.4457e-09
-2.62162e-09
-2.86594e-09
-3.2075e-09
-3.68625e-09
-4.35749e-09
-5.29588e-09
-6.6024e-09
-8.40937e-09
-1.0886e-08
-1.4244e-08
-1.87799e-08
-2.47848e-08
-3.21749e-08
-3.90845e-08
-5.30437e-10
-7.22719e-10
-6.03515e-10
-6.00074e-10
-6.30368e-10
-6.64566e-10
-6.99413e-10
-7.33654e-10
-7.66699e-10
-7.98548e-10
-8.29784e-10
-8.59505e-10
-8.87285e-10
-9.13131e-10
-9.37645e-10
-9.61669e-10
-9.85349e-10
-1.00815e-09
-1.03095e-09
-1.05369e-09
-1.07567e-09
-1.09834e-09
-1.12031e-09
-1.1428e-09
-1.16481e-09
-1.18691e-09
-1.2089e-09
-1.23091e-09
-1.2531e-09
-1.27515e-09
-1.29712e-09
-1.3191e-09
-1.34108e-09
-1.36303e-09
-1.3847e-09
-1.4066e-09
-1.42862e-09
-1.45044e-09
-1.47267e-09
-1.49475e-09
-1.51671e-09
-1.53872e-09
-1.56072e-09
-1.58231e-09
-1.60419e-09
-1.62642e-09
-1.64866e-09
-1.67061e-09
-1.69266e-09
-1.71458e-09
-1.73622e-09
-1.75809e-09
-1.77987e-09
-1.80168e-09
-1.82339e-09
-1.84508e-09
-1.86731e-09
-1.88965e-09
-1.91265e-09
-1.9365e-09
-1.96188e-09
-1.98933e-09
-2.0199e-09
-2.05602e-09
-2.09908e-09
-2.15332e-09
-2.22391e-09
-2.31752e-09
-2.44473e-09
-2.62059e-09
-2.8647e-09
-3.20641e-09
-3.68538e-09
-4.3571e-09
-5.29662e-09
-6.60486e-09
-8.41427e-09
-1.08946e-08
-1.42562e-08
-1.87333e-08
-2.45281e-08
-3.21719e-08
-3.92404e-08
-5.36424e-10
-7.34806e-10
-6.04637e-10
-6.00105e-10
-6.30312e-10
-6.6456e-10
-6.99421e-10
-7.33653e-10
-7.66717e-10
-7.98553e-10
-8.29752e-10
-8.59514e-10
-8.87245e-10
-9.13175e-10
-9.37653e-10
-9.61635e-10
-9.85253e-10
-1.00817e-09
-1.03093e-09
-1.05369e-09
-1.07567e-09
-1.09833e-09
-1.12032e-09
-1.14276e-09
-1.16478e-09
-1.18692e-09
-1.2088e-09
-1.23099e-09
-1.25303e-09
-1.27521e-09
-1.29716e-09
-1.31912e-09
-1.34101e-09
-1.36306e-09
-1.38466e-09
-1.40654e-09
-1.42864e-09
-1.45038e-09
-1.47265e-09
-1.49473e-09
-1.51673e-09
-1.53866e-09
-1.56068e-09
-1.58231e-09
-1.60422e-09
-1.62643e-09
-1.64861e-09
-1.6706e-09
-1.69266e-09
-1.71454e-09
-1.73629e-09
-1.75802e-09
-1.77985e-09
-1.80155e-09
-1.82327e-09
-1.84493e-09
-1.86715e-09
-1.88947e-09
-1.91243e-09
-1.93631e-09
-1.9615e-09
-1.98899e-09
-2.01937e-09
-2.05528e-09
-2.09829e-09
-2.15227e-09
-2.22223e-09
-2.3156e-09
-2.4422e-09
-2.61726e-09
-2.8603e-09
-3.2005e-09
-3.67773e-09
-4.34711e-09
-5.28379e-09
-6.58854e-09
-8.39391e-09
-1.08697e-08
-1.42268e-08
-1.87e-08
-2.45047e-08
-3.21392e-08
-3.92481e-08
-4.88411e-10
-4.72578e-10
-5.33766e-10
-5.98335e-10
-6.30437e-10
-6.64855e-10
-6.99582e-10
-7.33823e-10
-7.6685e-10
-7.98699e-10
-8.29891e-10
-8.59578e-10
-8.87263e-10
-9.13219e-10
-9.37744e-10
-9.61722e-10
-9.85069e-10
-1.00814e-09
-1.03109e-09
-1.05363e-09
-1.07575e-09
-1.09832e-09
-1.12048e-09
-1.14267e-09
-1.16476e-09
-1.18697e-09
-1.20898e-09
-1.23106e-09
-1.25311e-09
-1.27527e-09
-1.29743e-09
-1.31913e-09
-1.34123e-09
-1.3632e-09
-1.38482e-09
-1.40666e-09
-1.42879e-09
-1.4504e-09
-1.47259e-09
-1.49462e-09
-1.51667e-09
-1.53867e-09
-1.56063e-09
-1.58242e-09
-1.60437e-09
-1.62667e-09
-1.64879e-09
-1.67077e-09
-1.69289e-09
-1.71457e-09
-1.73648e-09
-1.75802e-09
-1.78e-09
-1.80161e-09
-1.82351e-09
-1.84497e-09
-1.86699e-09
-1.88936e-09
-1.91239e-09
-1.93625e-09
-1.96124e-09
-1.98859e-09
-2.01891e-09
-2.05435e-09
-2.09704e-09
-2.15072e-09
-2.22024e-09
-2.31251e-09
-2.43808e-09
-2.61146e-09
-2.8525e-09
-3.18984e-09
-3.66324e-09
-4.32747e-09
-5.25739e-09
-6.55351e-09
-8.34812e-09
-1.08115e-08
-1.41565e-08
-1.86885e-08
-2.46993e-08
-3.2048e-08
-3.90802e-08
-5.71262e-10
-9.95974e-10
-6.48296e-10
-6.02414e-10
-6.30532e-10
-6.65013e-10
-6.99892e-10
-7.34243e-10
-7.67196e-10
-7.98899e-10
-8.29902e-10
-8.59459e-10
-8.87032e-10
-9.13005e-10
-9.37403e-10
-9.61582e-10
-9.84913e-10
-1.00801e-09
-1.03062e-09
-1.0535e-09
-1.0757e-09
-1.09818e-09
-1.12046e-09
-1.14253e-09
-1.16476e-09
-1.18669e-09
-1.20891e-09
-1.23075e-09
-1.25296e-09
-1.27482e-09
-1.2969e-09
-1.31901e-09
-1.34102e-09
-1.36313e-09
-1.38509e-09
-1.40687e-09
-1.42921e-09
-1.45066e-09
-1.47278e-09
-1.49483e-09