/*--------------------------------*- C++ -*----------------------------------*\
| =========                 |                                                 |
| \\      /  F ield         | OpenFOAM: The Open Source CFD Toolbox           |
|  \\    /   O peration     | Version:  v1906                                 |
|   \\  /    A nd           | Web:      www.OpenFOAM.com                      |
|    \\/     M anipulation  |                                                 |
\*---------------------------------------------------------------------------*/
FoamFile
{
    version     2.0;
    format      ascii;
    class       volScalarField;
    location    "57.5";
    object      p;
}
// * * * * * * * * * * * * * * * * * * * * * * * * * * * * * * * * * * * * * //

dimensions      [0 2 -2 0 0 0 0];


internalField   nonuniform List<scalar> 
243374
(
-1.12258e-16
-3.89804e-11
-5.87275e-11
-8.16971e-11
-1.04337e-10
-1.26663e-10
-1.48839e-10
-1.70902e-10
-1.92922e-10
-2.14897e-10
-2.36851e-10
-2.58808e-10
-2.80758e-10
-3.02699e-10
-3.24643e-10
-3.46583e-10
-3.68534e-10
-3.90484e-10
-4.12426e-10
-4.34383e-10
-4.56343e-10
-4.7828e-10
-5.00228e-10
-5.22192e-10
-5.44136e-10
-5.6609e-10
-5.88044e-10
-6.09989e-10
-6.31943e-10
-6.53899e-10
-6.75852e-10
-6.978e-10
-7.19754e-10
-7.41708e-10
-7.63663e-10
-7.85615e-10
-8.07559e-10
-8.29519e-10
-8.51475e-10
-8.7342e-10
-8.95371e-10
-9.17333e-10
-9.39277e-10
-9.61232e-10
-9.83183e-10
-1.00514e-09
-1.02709e-09
-1.04905e-09
-1.071e-09
-1.09296e-09
-1.11492e-09
-1.13688e-09
-1.15884e-09
-1.18081e-09
-1.20279e-09
-1.22477e-09
-1.24678e-09
-1.2688e-09
-1.29085e-09
-1.31295e-09
-1.33511e-09
-1.35736e-09
-1.37974e-09
-1.40229e-09
-1.4251e-09
-1.44828e-09
-1.47198e-09
-1.49642e-09
-1.5219e-09
-1.54884e-09
-1.57792e-09
-1.60981e-09
-1.64584e-09
-1.6875e-09
-1.73693e-09
-1.79635e-09
-1.87017e-09
-1.96232e-09
-2.07122e-09
-2.24154e-09
-1.2408e-11
-3.98264e-11
-5.90979e-11
-8.18652e-11
-1.04429e-10
-1.26727e-10
-1.48883e-10
-1.70938e-10
-1.92934e-10
-2.14911e-10
-2.3687e-10
-2.58817e-10
-2.80757e-10
-3.02701e-10
-3.24647e-10
-3.46596e-10
-3.68546e-10
-3.90487e-10
-4.12444e-10
-4.34387e-10
-4.56334e-10
-4.78303e-10
-5.00248e-10
-5.22184e-10
-5.44146e-10
-5.66097e-10
-5.88047e-10
-6.10002e-10
-6.31952e-10
-6.53902e-10
-6.75856e-10
-6.97812e-10
-7.1976e-10
-7.41712e-10
-7.6367e-10
-7.85618e-10
-8.07576e-10
-8.29523e-10
-8.51476e-10
-8.73431e-10
-8.95382e-10
-9.17333e-10
-9.39286e-10
-9.61243e-10
-9.83186e-10
-1.00515e-09
-1.0271e-09
-1.04905e-09
-1.07101e-09
-1.09297e-09
-1.11492e-09
-1.13688e-09
-1.15884e-09
-1.18082e-09
-1.20279e-09
-1.22478e-09
-1.24678e-09
-1.2688e-09
-1.29086e-09
-1.31295e-09
-1.33511e-09
-1.35736e-09
-1.37974e-09
-1.40231e-09
-1.42513e-09
-1.44832e-09
-1.47206e-09
-1.49653e-09
-1.52208e-09
-1.54911e-09
-1.5783e-09
-1.61046e-09
-1.64667e-09
-1.68867e-09
-1.73852e-09
-1.79884e-09
-1.87332e-09
-1.9665e-09
-2.07795e-09
-2.23415e-09
-2.94123e-11
-4.00099e-11
-5.93464e-11
-8.19586e-11
-1.04471e-10
-1.26743e-10
-1.48878e-10
-1.70936e-10
-1.92944e-10
-2.14911e-10
-2.36858e-10
-2.58811e-10
-2.80758e-10
-3.02702e-10
-3.24642e-10
-3.46587e-10
-3.68528e-10
-3.90486e-10
-4.12426e-10
-4.34381e-10
-4.5634e-10
-4.78267e-10
-5.00226e-10
-5.22199e-10
-5.44137e-10
-5.66088e-10
-5.88045e-10
-6.09988e-10
-6.31943e-10
-6.53893e-10
-6.75845e-10
-6.97798e-10
-7.19758e-10
-7.41712e-10
-7.63655e-10
-7.85612e-10
-8.07558e-10
-8.29518e-10
-8.51475e-10
-8.73419e-10
-8.95377e-10
-9.17331e-10
-9.39279e-10
-9.61225e-10
-9.83188e-10
-1.00513e-09
-1.02708e-09
-1.04905e-09
-1.07099e-09
-1.09295e-09
-1.11492e-09
-1.13688e-09
-1.15884e-09
-1.1808e-09
-1.20278e-09
-1.22476e-09
-1.24677e-09
-1.26878e-09
-1.29083e-09
-1.31294e-09
-1.3351e-09
-1.35735e-09
-1.37974e-09
-1.40229e-09
-1.42512e-09
-1.44834e-09
-1.47207e-09
-1.49659e-09
-1.52217e-09
-1.54927e-09
-1.57856e-09
-1.61081e-09
-1.6472e-09
-1.68948e-09
-1.73964e-09
-1.80045e-09
-1.87552e-09
-1.96917e-09
-2.08207e-09
-2.22109e-09
1.26041e-10
-2.29828e-11
-3.76319e-11
-5.93648e-11
-8.20141e-11
-1.04509e-10
-1.26764e-10
-1.48928e-10
-1.70951e-10
-1.92943e-10
-2.14916e-10
-2.36879e-10
-2.58817e-10
-2.80762e-10
-3.02696e-10
-3.24648e-10
-3.46589e-10
-3.68549e-10
-3.9048e-10
-4.12445e-10
-4.34396e-10
-4.56334e-10
-4.78304e-10
-5.00243e-10
-5.22173e-10
-5.44141e-10
-5.66093e-10
-5.88046e-10
-6.10004e-10
-6.31948e-10
-6.53906e-10
-6.75862e-10
-6.97812e-10
-7.19752e-10
-7.41703e-10
-7.63675e-10
-7.8561e-10
-8.07574e-10
-8.29518e-10
-8.51465e-10
-8.7342e-10
-8.95376e-10
-9.17328e-10
-9.39279e-10
-9.61248e-10
-9.83179e-10
-1.00515e-09
-1.0271e-09
-1.04903e-09
-1.07101e-09
-1.09297e-09
-1.11491e-09
-1.13687e-09
-1.15882e-09
-1.18081e-09
-1.20278e-09
-1.22478e-09
-1.24677e-09
-1.2688e-09
-1.29085e-09
-1.31292e-09
-1.33509e-09
-1.35734e-09
-1.37972e-09
-1.4023e-09
-1.42513e-09
-1.44834e-09
-1.47211e-09
-1.49662e-09
-1.52225e-09
-1.54941e-09
-1.57875e-09
-1.6111e-09
-1.64776e-09
-1.69014e-09
-1.74056e-09
-1.80175e-09
-1.87732e-09
-1.9716e-09
-2.08826e-09
-2.22662e-09
-2.37349e-09
1.15648e-10
-2.79921e-11
-3.82921e-11
-5.94135e-11
-8.20531e-11
-1.04534e-10
-1.26783e-10
-1.48898e-10
-1.70961e-10
-1.92953e-10
-2.1492e-10
-2.36871e-10
-2.58807e-10
-2.80755e-10
-3.02711e-10
-3.24642e-10
-3.46598e-10
-3.68526e-10
-3.90492e-10
-4.12426e-10
-4.34372e-10
-4.56327e-10
-4.78263e-10
-5.00234e-10
-5.22205e-10
-5.44141e-10
-5.66095e-10
-5.88042e-10
-6.09986e-10
-6.31947e-10
-6.53894e-10
-6.75845e-10
-6.97792e-10
-7.19756e-10
-7.41719e-10
-7.63653e-10
-7.85618e-10
-8.07562e-10
-8.29509e-10
-8.51466e-10
-8.73421e-10
-8.9537e-10
-9.17323e-10
-9.39274e-10
-9.61224e-10
-9.8319e-10
-1.00514e-09
-1.02708e-09
-1.04906e-09
-1.07099e-09
-1.09294e-09
-1.11491e-09
-1.13688e-09
-1.15885e-09
-1.1808e-09
-1.20277e-09
-1.22474e-09
-1.24676e-09
-1.26876e-09
-1.29082e-09
-1.31294e-09
-1.33508e-09
-1.35733e-09
-1.37971e-09
-1.40227e-09
-1.4251e-09
-1.44833e-09
-1.47208e-09
-1.49663e-09
-1.52226e-09
-1.54945e-09
-1.57883e-09
-1.61128e-09
-1.64794e-09
-1.69054e-09
-1.74116e-09
-1.80259e-09
-1.87848e-09
-1.97317e-09
-2.08992e-09
-2.22641e-09
-2.39519e-09
-2.66192e-09
1.11384e-10
-2.22359e-11
-3.70005e-11
-5.93391e-11
-8.20752e-11
-1.04531e-10
-1.26793e-10
-1.48941e-10
-1.70959e-10
-1.92954e-10
-2.14918e-10
-2.36873e-10
-2.58823e-10
-2.8076e-10
-3.02691e-10
-3.24655e-10
-3.46578e-10
-3.68547e-10
-3.90476e-10
-4.12436e-10
-4.34397e-10
-4.56342e-10
-4.78306e-10
-5.00238e-10
-5.22169e-10
-5.4414e-10
-5.66088e-10
-5.88043e-10
-6.09999e-10
-6.31943e-10
-6.53899e-10
-6.75858e-10
-6.97819e-10
-7.19757e-10
-7.41693e-10
-7.63663e-10
-7.85605e-10
-8.0756e-10
-8.29514e-10
-8.51466e-10
-8.73412e-10
-8.95373e-10
-9.17322e-10
-9.3928e-10
-9.6123e-10
-9.83181e-10
-1.00514e-09
-1.0271e-09
-1.04902e-09
-1.071e-09
-1.09297e-09
-1.11492e-09
-1.13685e-09
-1.15881e-09
-1.18079e-09
-1.20278e-09
-1.22477e-09
-1.24675e-09
-1.26878e-09
-1.29083e-09
-1.3129e-09
-1.33507e-09
-1.35731e-09
-1.37969e-09
-1.40226e-09
-1.42509e-09
-1.4483e-09
-1.47207e-09
-1.4966e-09
-1.52224e-09
-1.54944e-09
-1.57883e-09
-1.6113e-09
-1.64805e-09
-1.69068e-09
-1.7414e-09
-1.80297e-09
-1.87903e-09
-1.974e-09
-2.09239e-09
-2.23447e-09
-2.40493e-09
-2.66394e-09
1.06634e-10
-2.49971e-11
-3.74568e-11
-5.93891e-11
-8.20781e-11
-1.04564e-10
-1.26793e-10
-1.48921e-10
-1.70967e-10
-1.92949e-10
-2.1493e-10
-2.36873e-10
-2.58802e-10
-2.80765e-10
-3.02713e-10
-3.2464e-10
-3.46596e-10
-3.68532e-10
-3.90499e-10
-4.12438e-10
-4.34372e-10
-4.56322e-10
-4.78268e-10
-5.00236e-10
-5.22198e-10
-5.44145e-10
-5.66095e-10
-5.88041e-10
-6.09995e-10
-6.31951e-10
-6.53899e-10
-6.75845e-10
-6.97788e-10
-7.19749e-10
-7.41724e-10
-7.63665e-10
-7.85608e-10
-8.07559e-10
-8.29507e-10
-8.51453e-10
-8.73413e-10
-8.95351e-10
-9.1732e-10
-9.39259e-10
-9.61228e-10
-9.83179e-10
-1.00513e-09
-1.02708e-09
-1.04906e-09
-1.071e-09
-1.09294e-09
-1.1149e-09
-1.13687e-09
-1.15884e-09
-1.1808e-09
-1.20276e-09
-1.22474e-09
-1.24675e-09
-1.26875e-09
-1.2908e-09
-1.3129e-09
-1.33504e-09
-1.35729e-09
-1.37966e-09
-1.40222e-09
-1.42504e-09
-1.44826e-09
-1.472e-09
-1.49654e-09
-1.52217e-09
-1.54935e-09
-1.57873e-09
-1.61119e-09
-1.64791e-09
-1.69056e-09
-1.74128e-09
-1.80286e-09
-1.87894e-09
-1.97394e-09
-2.0921e-09
-2.23178e-09
-2.40762e-09
-2.66557e-09
1.05043e-10
-2.49403e-11
-3.74392e-11
-5.93719e-11
-8.20771e-11
-1.04533e-10
-1.26803e-10
-1.48925e-10
-1.70965e-10
-1.92963e-10
-2.14911e-10
-2.36873e-10
-2.58824e-10
-2.80748e-10
-3.02696e-10
-3.24652e-10
-3.46579e-10
-3.68536e-10
-3.90474e-10
-4.12424e-10
-4.34394e-10
-4.56344e-10
-4.78294e-10
-5.00235e-10
-5.22177e-10
-5.4413e-10
-5.66087e-10
-5.88045e-10
-6.09988e-10
-6.31938e-10
-6.53897e-10
-6.75854e-10
-6.97814e-10
-7.19763e-10
-7.41687e-10
-7.6366e-10
-7.85606e-10
-8.07561e-10
-8.29516e-10
-8.51472e-10
-8.73413e-10
-8.95373e-10
-9.17319e-10
-9.39278e-10
-9.61227e-10
-9.83176e-10
-1.00514e-09
-1.0271e-09
-1.04902e-09
-1.07098e-09
-1.09296e-09
-1.11491e-09
-1.13685e-09
-1.15881e-09
-1.18078e-09
-1.20276e-09
-1.22474e-09
-1.24673e-09
-1.26875e-09
-1.2908e-09
-1.31287e-09
-1.33503e-09
-1.35726e-09
-1.37963e-09
-1.40219e-09
-1.425e-09
-1.44819e-09
-1.47193e-09
-1.49643e-09
-1.52205e-09
-1.54919e-09
-1.57853e-09
-1.61093e-09
-1.6476e-09
-1.69016e-09
-1.74078e-09
-1.80226e-09
-1.8782e-09
-1.97304e-09
-2.09097e-09
-2.23042e-09
-2.40716e-09
-2.66504e-09
1.05761e-10
-2.24228e-11
-3.70457e-11
-5.93543e-11
-8.20714e-11
-1.04558e-10
-1.26782e-10
-1.48926e-10
-1.7096e-10
-1.92939e-10
-2.14929e-10
-2.36871e-10
-2.58805e-10
-2.8077e-10
-3.02703e-10
-3.24646e-10
-3.46587e-10
-3.68541e-10
-3.90501e-10
-4.12444e-10
-4.34375e-10
-4.56325e-10
-4.78278e-10
-5.00236e-10
-5.22187e-10
-5.44145e-10
-5.66098e-10
-5.88038e-10
-6.10002e-10
-6.31956e-10
-6.539e-10
-6.75848e-10
-6.97796e-10
-7.19744e-10
-7.41727e-10
-7.63658e-10
-7.85608e-10
-8.07561e-10
-8.29512e-10
-8.51449e-10
-8.73416e-10
-8.95368e-10
-9.17319e-10
-9.39271e-10
-9.61227e-10
-9.83184e-10
-1.00513e-09
-1.02708e-09
-1.04905e-09
-1.07101e-09
-1.09294e-09
-1.1149e-09
-1.13687e-09
-1.15883e-09
-1.18079e-09
-1.20275e-09
-1.22473e-09
-1.24673e-09
-1.26873e-09
-1.29078e-09
-1.31287e-09
-1.33501e-09
-1.35724e-09
-1.37959e-09
-1.40213e-09
-1.42493e-09
-1.44812e-09
-1.47183e-09
-1.4963e-09
-1.52187e-09
-1.54896e-09
-1.57823e-09
-1.61054e-09
-1.64708e-09
-1.68949e-09
-1.73992e-09
-1.80117e-09
-1.8768e-09
-1.97128e-09
-2.08906e-09
-2.2311e-09
-2.40389e-09
-2.66214e-09
1.09057e-10
-2.78486e-11
-3.82638e-11
-5.94157e-11
-8.20516e-11
-1.04507e-10
-1.26792e-10
-1.48895e-10
-1.70958e-10
-1.92955e-10
-2.14905e-10
-2.36874e-10
-2.58822e-10
-2.80739e-10
-3.02702e-10
-3.24642e-10
-3.46585e-10
-3.68526e-10
-3.90471e-10
-4.12422e-10
-4.34388e-10
-4.56334e-10
-4.78287e-10
-5.00234e-10
-5.22187e-10
-5.44135e-10
-5.66081e-10
-5.88043e-10
-6.09985e-10
-6.31935e-10
-6.53894e-10
-6.75848e-10
-6.97802e-10
-7.19763e-10
-7.4169e-10
-7.63653e-10
-7.85622e-10
-8.07561e-10
-8.29517e-10
-8.51469e-10
-8.73414e-10
-8.95371e-10
-9.1732e-10
-9.39275e-10
-9.61225e-10
-9.83182e-10
-1.00514e-09
-1.02708e-09
-1.04903e-09
-1.07097e-09
-1.09295e-09
-1.1149e-09
-1.13684e-09
-1.15881e-09
-1.18077e-09
-1.20275e-09
-1.22472e-09
-1.24671e-09
-1.26873e-09
-1.29076e-09
-1.31283e-09
-1.33497e-09
-1.3572e-09
-1.37955e-09
-1.40208e-09
-1.42487e-09
-1.44802e-09
-1.4717e-09
-1.49613e-09
-1.52166e-09
-1.54867e-09
-1.57784e-09
-1.61001e-09
-1.64639e-09
-1.68858e-09
-1.7387e-09
-1.79962e-09
-1.8748e-09
-1.96866e-09
-2.08467e-09
-2.22012e-09
-2.39549e-09
-2.65785e-09
1.2025e-10
-2.30508e-11
-3.76269e-11
-5.93424e-11
-8.20127e-11
-1.0451e-10
-1.2676e-10
-1.48901e-10
-1.7095e-10
-1.92937e-10
-2.14923e-10
-2.36866e-10
-2.58806e-10
-2.80768e-10
-3.027e-10
-3.2465e-10
-3.46587e-10
-3.68546e-10
-3.90502e-10
-4.12446e-10
-4.34379e-10
-4.56334e-10
-4.78284e-10
-5.00234e-10
-5.22188e-10
-5.44139e-10
-5.66102e-10
-5.88042e-10
-6.10002e-10
-6.31957e-10
-6.53905e-10
-6.75851e-10
-6.97809e-10
-7.19745e-10
-7.41721e-10
-7.63671e-10
-7.85602e-10
-8.07569e-10
-8.29525e-10
-8.51465e-10
-8.73425e-10
-8.95372e-10
-9.17336e-10
-9.39275e-10
-9.61238e-10
-9.8318e-10
-1.00513e-09
-1.02709e-09
-1.04904e-09
-1.07101e-09
-1.09294e-09
-1.1149e-09
-1.13687e-09
-1.15881e-09
-1.18078e-09
-1.20274e-09
-1.22472e-09
-1.24671e-09
-1.26871e-09
-1.29075e-09
-1.31283e-09
-1.33496e-09
-1.35717e-09
-1.37951e-09
-1.40202e-09
-1.42478e-09
-1.44791e-09
-1.47156e-09
-1.49594e-09
-1.52147e-09
-1.5483e-09
-1.57734e-09
-1.60936e-09
-1.64551e-09
-1.68742e-09
-1.73716e-09
-1.79763e-09
-1.8722e-09
-1.96533e-09
-2.08077e-09
-2.21826e-09
-2.37729e-09
-2.65688e-09
1.46759e-10
-2.93622e-11
-3.99713e-11
-5.93432e-11
-8.19461e-11
-1.0445e-10
-1.26737e-10
-1.48871e-10
-1.70931e-10
-1.92934e-10
-2.14897e-10
-2.36865e-10
-2.58811e-10
-2.80739e-10
-3.02697e-10
-3.2464e-10
-3.46582e-10
-3.68527e-10
-3.90471e-10
-4.12422e-10
-4.34382e-10
-4.5633e-10
-4.78278e-10
-5.00237e-10
-5.22184e-10
-5.44138e-10
-5.66082e-10
-5.8804e-10
-6.09989e-10
-6.31936e-10
-6.53888e-10
-6.75846e-10
-6.97798e-10
-7.19762e-10
-7.41696e-10
-7.63649e-10
-7.85617e-10
-8.07565e-10
-8.29508e-10
-8.51474e-10
-8.7342e-10
-8.95369e-10
-9.17323e-10
-9.39274e-10
-9.61222e-10
-9.8318e-10
-1.00513e-09
-1.02708e-09
-1.04903e-09
-1.07098e-09
-1.09294e-09
-1.11489e-09
-1.13684e-09
-1.15881e-09
-1.18076e-09
-1.20274e-09
-1.22471e-09
-1.24669e-09
-1.2687e-09
-1.29072e-09
-1.31279e-09
-1.33491e-09
-1.35713e-09
-1.37945e-09
-1.40195e-09
-1.42469e-09
-1.44778e-09
-1.47138e-09
-1.4957e-09
-1.52097e-09
-1.54789e-09
-1.57678e-09
-1.60858e-09
-1.64446e-09
-1.68599e-09
-1.73527e-09
-1.79523e-09
-1.86898e-09
-1.96118e-09
-2.07261e-09
-2.21004e-09
-2.34862e-09
-1.22674e-11
-3.97981e-11
-5.90826e-11
-8.18496e-11
-1.04421e-10
-1.26716e-10
-1.48863e-10
-1.70925e-10
-1.9293e-10
-2.14906e-10
-2.36858e-10
-2.58805e-10
-2.80762e-10
-3.02697e-10
-3.24646e-10
-3.46594e-10
-3.6854e-10
-3.90493e-10
-4.12442e-10
-4.34387e-10
-4.56335e-10
-4.78289e-10
-5.00234e-10
-5.22191e-10
-5.44138e-10
-5.66099e-10
-5.88045e-10
-6.09996e-10
-6.31953e-10
-6.53907e-10
-6.75853e-10
-6.97805e-10
-7.19751e-10
-7.41717e-10
-7.63668e-10
-7.8561e-10
-8.07567e-10
-8.29527e-10
-8.51472e-10
-8.73427e-10
-8.95382e-10
-9.17331e-10
-9.39281e-10
-9.61237e-10
-9.8318e-10
-1.00513e-09
-1.02709e-09
-1.04904e-09
-1.071e-09
-1.09294e-09
-1.1149e-09
-1.13686e-09
-1.15881e-09
-1.18077e-09
-1.20273e-09
-1.22471e-09
-1.24669e-09
-1.26869e-09
-1.29072e-09
-1.31278e-09
-1.3349e-09
-1.35709e-09
-1.37941e-09
-1.40188e-09
-1.4246e-09
-1.44766e-09
-1.47122e-09
-1.49546e-09
-1.52075e-09
-1.54744e-09
-1.57617e-09
-1.60775e-09
-1.64332e-09
-1.68445e-09
-1.73322e-09
-1.79269e-09
-1.86547e-09
-1.95694e-09
-2.06653e-09
-2.22074e-09
2.34353e-13
-3.89451e-11
-5.87172e-11
-8.16795e-11
-1.04317e-10
-1.2665e-10
-1.48823e-10
-1.70896e-10
-1.92909e-10
-2.14885e-10
-2.36854e-10
-2.58804e-10
-2.80735e-10
-3.02693e-10
-3.24641e-10
-3.4658e-10
-3.68533e-10
-3.90476e-10
-4.12429e-10
-4.34378e-10
-4.56332e-10
-4.78276e-10
-5.00239e-10
-5.22186e-10
-5.44137e-10
-5.66086e-10
-5.88039e-10
-6.09997e-10
-6.31939e-10
-6.53886e-10
-6.75852e-10
-6.97797e-10
-7.19756e-10
-7.41702e-10
-7.63653e-10
-7.85611e-10
-8.07567e-10
-8.29512e-10
-8.51472e-10
-8.7342e-10
-8.95369e-10
-9.17326e-10
-9.39272e-10
-9.6122e-10
-9.83177e-10
-1.00513e-09
-1.02708e-09
-1.04903e-09
-1.07098e-09
-1.09294e-09
-1.11489e-09
-1.13684e-09
-1.1588e-09
-1.18075e-09
-1.20273e-09
-1.22469e-09
-1.24667e-09
-1.26867e-09
-1.29069e-09
-1.31275e-09
-1.33485e-09
-1.35703e-09
-1.37932e-09
-1.40179e-09
-1.42447e-09
-1.44749e-09
-1.47098e-09
-1.49517e-09
-1.5203e-09
-1.54688e-09
-1.5754e-09
-1.60668e-09
-1.64187e-09
-1.68246e-09
-1.73064e-09
-1.7887e-09
-1.86063e-09
-1.95067e-09
-2.05767e-09
-2.22601e-09
-1.57381e-11
-3.12186e-11
-5.6624e-11
-8.08332e-11
-1.03904e-10
-1.2643e-10
-1.48691e-10
-1.70807e-10
-1.92857e-10
-2.14857e-10
-2.3683e-10
-2.5879e-10
-2.80738e-10
-3.02694e-10
-3.24636e-10
-3.46583e-10
-3.68534e-10
-3.90482e-10
-4.12429e-10
-4.34379e-10
-4.56336e-10
-4.78285e-10
-5.00228e-10
-5.22188e-10
-5.44136e-10
-5.66094e-10
-5.88045e-10
-6.09992e-10
-6.3194e-10
-6.53901e-10
-6.75851e-10
-6.97803e-10
-7.19748e-10
-7.41711e-10
-7.63664e-10
-7.85614e-10
-8.07562e-10
-8.29515e-10
-8.51471e-10
-8.73425e-10
-8.95374e-10
-9.17327e-10
-9.39281e-10
-9.6123e-10
-9.83191e-10
-1.00514e-09
-1.0271e-09
-1.04905e-09
-1.07101e-09
-1.09296e-09
-1.11493e-09
-1.13688e-09
-1.15885e-09
-1.18082e-09
-1.2028e-09
-1.22479e-09
-1.24679e-09
-1.2688e-09
-1.29086e-09
-1.31295e-09
-1.33511e-09
-1.35733e-09
-1.37967e-09
-1.40217e-09
-1.42491e-09
-1.44796e-09
-1.47147e-09
-1.49563e-09
-1.52075e-09
-1.54703e-09
-1.5753e-09
-1.60605e-09
-1.64036e-09
-1.67961e-09
-1.72524e-09
-1.78146e-09
-1.84975e-09
-1.93798e-09
-2.04883e-09
-2.18156e-09
1.45158e-10
-2.271e-11
-3.29946e-11
-5.72587e-11
-8.1104e-11
-1.04052e-10
-1.26517e-10
-1.48751e-10
-1.70847e-10
-1.92881e-10
-2.14877e-10
-2.36839e-10
-2.58794e-10
-2.80753e-10
-3.02691e-10
-3.24646e-10
-3.46598e-10
-3.68537e-10
-3.90484e-10
-4.1244e-10
-4.34388e-10
-4.56331e-10
-4.78287e-10
-5.00246e-10
-5.22193e-10
-5.44146e-10
-5.66094e-10
-5.88045e-10
-6.10002e-10
-6.31961e-10
-6.53901e-10
-6.75855e-10
-6.9781e-10
-7.19765e-10
-7.41711e-10
-7.63656e-10
-7.85614e-10
-8.07578e-10
-8.29523e-10
-8.51471e-10
-8.73431e-10
-8.95383e-10
-9.1733e-10
-9.39281e-10
-9.61235e-10
-9.83196e-10
-1.00515e-09
-1.0271e-09
-1.04905e-09
-1.07101e-09
-1.09298e-09
-1.11493e-09
-1.13689e-09
-1.15885e-09
-1.18083e-09
-1.2028e-09
-1.22479e-09
-1.24679e-09
-1.26882e-09
-1.29087e-09
-1.31296e-09
-1.33511e-09
-1.35734e-09
-1.37969e-09
-1.40222e-09
-1.42498e-09
-1.44808e-09
-1.47163e-09
-1.49589e-09
-1.5211e-09
-1.54771e-09
-1.57605e-09
-1.60712e-09
-1.64191e-09
-1.68184e-09
-1.72917e-09
-1.78589e-09
-1.85556e-09
-1.94446e-09
-2.05654e-09
-2.18382e-09
-2.2975e-09
1.31058e-10
-1.23417e-11
-3.36913e-11
-5.76851e-11
-8.12864e-11
-1.04132e-10
-1.26561e-10
-1.4876e-10
-1.70858e-10
-1.92889e-10
-2.14873e-10
-2.36851e-10
-2.58798e-10
-2.80739e-10
-3.02704e-10
-3.24639e-10
-3.46578e-10
-3.68536e-10
-3.90485e-10
-4.12427e-10
-4.34382e-10
-4.5634e-10
-4.78284e-10
-5.00227e-10
-5.22188e-10
-5.44134e-10
-5.66096e-10
-5.88045e-10
-6.09989e-10
-6.31937e-10
-6.53903e-10
-6.75855e-10
-6.97796e-10
-7.19751e-10
-7.41708e-10
-7.6367e-10
-7.8562e-10
-8.07549e-10
-8.29517e-10
-8.51476e-10
-8.73423e-10
-8.95366e-10
-9.17331e-10
-9.39284e-10
-9.61234e-10
-9.83185e-10
-1.00514e-09
-1.0271e-09
-1.04905e-09
-1.07101e-09
-1.09295e-09
-1.11493e-09
-1.13688e-09
-1.15885e-09
-1.18082e-09
-1.20279e-09
-1.22479e-09
-1.24679e-09
-1.2688e-09
-1.29085e-09
-1.31295e-09
-1.33512e-09
-1.35735e-09
-1.37971e-09
-1.40224e-09
-1.42502e-09
-1.44813e-09
-1.47176e-09
-1.49606e-09
-1.52135e-09
-1.54806e-09
-1.57667e-09
-1.60802e-09
-1.64318e-09
-1.68365e-09
-1.73137e-09
-1.78945e-09
-1.86051e-09
-1.95051e-09
-2.06397e-09
-2.2041e-09
-2.31116e-09
-2.55492e-09
1.47296e-10
-1.32151e-11
-3.46506e-11
-5.81171e-11
-8.14691e-11
-1.04217e-10
-1.26616e-10
-1.48806e-10
-1.7088e-10
-1.92902e-10
-2.14889e-10
-2.36856e-10
-2.58805e-10
-2.80746e-10
-3.02691e-10
-3.24653e-10
-3.46602e-10
-3.68536e-10
-3.90488e-10
-4.12444e-10
-4.34388e-10
-4.5632e-10
-4.78284e-10
-5.00254e-10
-5.22192e-10
-5.44144e-10
-5.66093e-10
-5.88038e-10
-6.10008e-10
-6.31962e-10
-6.53898e-10
-6.75857e-10
-6.9781e-10
-7.19767e-10
-7.4171e-10
-7.63658e-10
-7.85607e-10
-8.07587e-10
-8.29526e-10
-8.51461e-10
-8.73433e-10
-8.95386e-10
-9.17325e-10
-9.39284e-10
-9.61232e-10
-9.83196e-10
-1.00515e-09
-1.0271e-09
-1.04905e-09
-1.071e-09
-1.09298e-09
-1.11492e-09
-1.13689e-09
-1.15885e-09
-1.18083e-09
-1.20279e-09
-1.22479e-09
-1.24679e-09
-1.26882e-09
-1.29088e-09
-1.31296e-09
-1.3351e-09
-1.35735e-09
-1.37973e-09
-1.40227e-09
-1.42507e-09
-1.44821e-09
-1.47185e-09
-1.49624e-09
-1.52161e-09
-1.54851e-09
-1.57722e-09
-1.60883e-09
-1.64439e-09
-1.68539e-09
-1.73413e-09
-1.79285e-09
-1.865e-09
-1.95601e-09
-2.07035e-09
-2.21118e-09
-2.26691e-09
-2.58708e-09
1.05967e-10
-9.12276e-12
-3.49137e-11
-5.84923e-11
-8.16555e-11
-1.04311e-10
-1.26667e-10
-1.48846e-10
-1.709e-10
-1.92925e-10
-2.14904e-10
-2.36865e-10
-2.58805e-10
-2.80758e-10
-3.02706e-10
-3.24643e-10
-3.4658e-10
-3.68536e-10
-3.90491e-10
-4.12433e-10
-4.34383e-10
-4.56351e-10
-4.78285e-10
-5.00228e-10
-5.22197e-10
-5.44138e-10
-5.66095e-10
-5.88046e-10
-6.09991e-10
-6.31944e-10
-6.53906e-10
-6.75853e-10
-6.97807e-10
-7.19753e-10
-7.41708e-10
-7.63668e-10
-7.85628e-10
-8.07558e-10
-8.29522e-10
-8.51481e-10
-8.73427e-10
-8.9537e-10
-9.17338e-10
-9.39284e-10
-9.61233e-10
-9.83191e-10
-1.00514e-09
-1.02709e-09
-1.04906e-09
-1.07101e-09
-1.09296e-09
-1.11493e-09
-1.13688e-09
-1.15885e-09
-1.18081e-09
-1.2028e-09
-1.22478e-09
-1.24678e-09
-1.2688e-09
-1.29085e-09
-1.31295e-09
-1.33512e-09
-1.35737e-09
-1.37973e-09
-1.4023e-09
-1.42509e-09
-1.44825e-09
-1.47195e-09
-1.49635e-09
-1.52181e-09
-1.54868e-09
-1.57769e-09
-1.60952e-09
-1.64536e-09
-1.68681e-09
-1.73599e-09
-1.79502e-09
-1.86858e-09
-1.96084e-09
-2.07716e-09
-2.22222e-09
-2.32063e-09
-2.60781e-09
8.88958e-11
-1.18861e-11
-3.63527e-11
-5.90026e-11
-8.18843e-11
-1.0444e-10
-1.26772e-10
-1.4889e-10
-1.7096e-10
-1.92949e-10
-2.14923e-10
-2.36894e-10
-2.58827e-10
-2.8075e-10
-3.02708e-10
-3.2465e-10
-3.46611e-10
-3.68552e-10
-3.90493e-10
-4.12443e-10
-4.34393e-10
-4.56318e-10
-4.78308e-10
-5.00265e-10
-5.22187e-10
-5.44144e-10
-5.66102e-10
-5.8804e-10
-6.10019e-10
-6.31961e-10
-6.53907e-10
-6.75858e-10
-6.97824e-10
-7.19771e-10
-7.41713e-10
-7.63659e-10
-7.85625e-10
-8.07586e-10
-8.29532e-10
-8.5147e-10
-8.73449e-10
-8.95391e-10
-9.17323e-10
-9.39298e-10
-9.61243e-10
-9.832e-10
-1.00515e-09
-1.02711e-09
-1.04904e-09
-1.07102e-09
-1.09296e-09
-1.11492e-09
-1.13688e-09
-1.15884e-09
-1.18082e-09
-1.20278e-09
-1.22479e-09
-1.24679e-09
-1.26881e-09
-1.29087e-09
-1.31296e-09
-1.33511e-09
-1.35736e-09
-1.37974e-09
-1.40229e-09
-1.42512e-09
-1.4483e-09
-1.47202e-09
-1.49647e-09
-1.52198e-09
-1.54899e-09
-1.57808e-09
-1.61014e-09
-1.64626e-09
-1.68809e-09
-1.73771e-09
-1.79769e-09
-1.87194e-09
-1.96496e-09
-2.08156e-09
-2.22953e-09
-2.37996e-09
-2.61258e-09
8.04467e-11
-1.55112e-11
-3.74957e-11
-5.93223e-11
-8.20401e-11
-1.04516e-10
-1.26809e-10
-1.48917e-10
-1.70968e-10
-1.92964e-10
-2.14933e-10
-2.36873e-10
-2.58822e-10
-2.80773e-10
-3.02716e-10
-3.24652e-10
-3.46586e-10
-3.68535e-10
-3.90494e-10
-4.12436e-10
-4.3438e-10
-4.56348e-10
-4.78272e-10
-5.00226e-10
-5.22206e-10
-5.4414e-10
-5.66091e-10
-5.88049e-10
-6.09988e-10
-6.31951e-10
-6.53904e-10
-6.75859e-10
-6.97798e-10
-7.19755e-10
-7.41713e-10
-7.63666e-10
-7.85619e-10
-8.07572e-10
-8.29528e-10
-8.51469e-10
-8.73429e-10
-8.95382e-10
-9.17337e-10
-9.3929e-10
-9.61221e-10
-9.83191e-10
-1.00514e-09
-1.02709e-09
-1.04906e-09
-1.071e-09
-1.09296e-09
-1.11492e-09
-1.13688e-09
-1.15885e-09
-1.1808e-09
-1.20279e-09
-1.22476e-09
-1.24676e-09
-1.26879e-09
-1.29085e-09
-1.31295e-09
-1.33511e-09
-1.35735e-09
-1.37973e-09
-1.4023e-09
-1.42511e-09
-1.44832e-09
-1.47204e-09
-1.49654e-09
-1.5221e-09
-1.54917e-09
-1.5784e-09
-1.61059e-09
-1.64693e-09
-1.68905e-09
-1.73903e-09
-1.79958e-09
-1.87448e-09
-1.96796e-09
-2.08435e-09
-2.2318e-09
-2.40403e-09
-2.61881e-09
5.22221e-11
-1.40863e-11
-3.69117e-11
-5.94592e-11
-8.21259e-11
-1.04583e-10
-1.2684e-10
-1.48946e-10
-1.70985e-10
-1.92979e-10
-2.14941e-10
-2.36898e-10
-2.58843e-10
-2.80768e-10
-3.02705e-10
-3.24661e-10
-3.46608e-10
-3.68557e-10
-3.90494e-10
-4.1244e-10
-4.3439e-10
-4.56338e-10
-4.7831e-10
-5.00256e-10
-5.22183e-10
-5.44145e-10
-5.66101e-10
-5.88044e-10
-6.1002e-10
-6.31956e-10
-6.53912e-10
-6.75851e-10
-6.97826e-10
-7.1977e-10
-7.41707e-10
-7.63666e-10
-7.85628e-10
-8.07569e-10
-8.29524e-10
-8.51482e-10
-8.73429e-10
-8.95379e-10
-9.17326e-10
-9.39291e-10
-9.61245e-10
-9.83198e-10
-1.00515e-09
-1.02711e-09
-1.04904e-09
-1.07101e-09
-1.09297e-09
-1.11492e-09
-1.13687e-09
-1.15884e-09
-1.18081e-09
-1.20279e-09
-1.22479e-09
-1.24678e-09
-1.2688e-09
-1.29084e-09
-1.31293e-09
-1.3351e-09
-1.35735e-09
-1.37972e-09
-1.40229e-09
-1.42513e-09
-1.44832e-09
-1.47209e-09
-1.49658e-09
-1.52218e-09
-1.54929e-09
-1.57861e-09
-1.61091e-09
-1.64742e-09
-1.68975e-09
-1.74004e-09
-1.80101e-09
-1.87634e-09
-1.97043e-09
-2.0882e-09
-2.23735e-09
-2.45879e-09
-2.62891e-09
5.00603e-11
-1.67316e-11
-3.77477e-11
-5.96042e-11
-8.21994e-11
-1.04621e-10
-1.26871e-10
-1.48947e-10
-1.70995e-10
-1.92981e-10
-2.1495e-10
-2.36869e-10
-2.58831e-10
-2.80773e-10
-3.02731e-10
-3.24643e-10
-3.46605e-10
-3.68531e-10
-3.90491e-10
-4.12442e-10
-4.34386e-10
-4.56333e-10
-4.78276e-10
-5.00233e-10
-5.22207e-10
-5.44146e-10
-5.66084e-10
-5.88052e-10
-6.0999e-10
-6.31955e-10
-6.53906e-10
-6.75861e-10
-6.97795e-10
-7.1976e-10
-7.41724e-10
-7.63652e-10
-7.85621e-10
-8.07567e-10
-8.29522e-10
-8.51475e-10
-8.73426e-10
-8.95376e-10
-9.17329e-10
-9.3929e-10
-9.61236e-10
-9.83192e-10
-1.00513e-09
-1.02709e-09
-1.04907e-09
-1.071e-09
-1.09295e-09
-1.11491e-09
-1.13689e-09
-1.15885e-09
-1.18081e-09
-1.20278e-09
-1.22474e-09
-1.24674e-09
-1.26878e-09
-1.29083e-09
-1.31294e-09
-1.33508e-09
-1.35733e-09
-1.37971e-09
-1.40227e-09
-1.42509e-09
-1.44831e-09
-1.47205e-09
-1.49659e-09
-1.52219e-09
-1.54937e-09
-1.5787e-09
-1.6111e-09
-1.6477e-09
-1.69017e-09
-1.74065e-09
-1.80193e-09
-1.87757e-09
-1.97196e-09
-2.08946e-09
-2.23768e-09
-2.46164e-09
-2.63635e-09
4.92094e-11
-1.52206e-11
-3.71005e-11
-5.96037e-11
-8.22442e-11
-1.04648e-10
-1.26874e-10
-1.48986e-10
-1.70994e-10
-1.92992e-10
-2.14932e-10
-2.36904e-10
-2.58847e-10
-2.80769e-10
-3.02698e-10
-3.24663e-10
-3.46603e-10
-3.68559e-10
-3.90485e-10
-4.12437e-10
-4.34387e-10
-4.56356e-10
-4.78305e-10
-5.00241e-10
-5.22183e-10
-5.44132e-10
-5.6611e-10
-5.88047e-10
-6.10013e-10
-6.31952e-10
-6.53905e-10
-6.75852e-10
-6.97826e-10
-7.1977e-10
-7.41702e-10
-7.63663e-10
-7.85621e-10
-8.07566e-10
-8.2952e-10
-8.5147e-10
-8.73424e-10
-8.95374e-10
-9.17329e-10
-9.39284e-10
-9.61228e-10
-9.8319e-10
-1.00514e-09
-1.02711e-09
-1.04904e-09
-1.071e-09
-1.09297e-09
-1.11492e-09
-1.13687e-09
-1.15883e-09
-1.18079e-09
-1.20278e-09
-1.22478e-09
-1.24676e-09
-1.26878e-09
-1.29082e-09
-1.3129e-09
-1.33508e-09
-1.35731e-09
-1.37969e-09
-1.40225e-09
-1.42509e-09
-1.44827e-09
-1.47205e-09
-1.49655e-09
-1.52218e-09
-1.54933e-09
-1.57871e-09
-1.61112e-09
-1.6478e-09
-1.69034e-09
-1.74094e-09
-1.80231e-09
-1.87815e-09
-1.97276e-09
-2.09114e-09
-2.23953e-09
-2.46473e-09
-2.64103e-09
4.83452e-11
-1.62059e-11
-3.74755e-11
-5.96636e-11
-8.22539e-11
-1.04669e-10
-1.26891e-10
-1.48955e-10
-1.71001e-10
-1.92992e-10
-2.14955e-10
-2.36882e-10
-2.58834e-10
-2.80778e-10
-3.02731e-10
-3.24641e-10
-3.46614e-10
-3.68531e-10
-3.90498e-10
-4.12448e-10
-4.34384e-10
-4.56322e-10
-4.78278e-10
-5.00248e-10
-5.22206e-10
-5.44157e-10
-5.66081e-10
-5.88053e-10
-6.10002e-10
-6.31958e-10
-6.53912e-10
-6.75858e-10
-6.97796e-10
-7.19757e-10
-7.41725e-10
-7.63655e-10
-7.85631e-10
-8.07559e-10
-8.29516e-10
-8.51468e-10
-8.73425e-10
-8.95366e-10
-9.17325e-10
-9.39283e-10
-9.61237e-10
-9.83187e-10
-1.00514e-09
-1.02708e-09
-1.04907e-09
-1.07101e-09
-1.09294e-09
-1.11491e-09
-1.13689e-09
-1.15884e-09
-1.18081e-09
-1.20277e-09
-1.22473e-09
-1.24674e-09
-1.26876e-09
-1.29081e-09
-1.31291e-09
-1.33505e-09
-1.35729e-09
-1.37966e-09
-1.40221e-09
-1.42503e-09
-1.44824e-09
-1.47197e-09
-1.4965e-09
-1.52209e-09
-1.54925e-09
-1.5786e-09
-1.61102e-09
-1.64765e-09
-1.69021e-09
-1.74081e-09
-1.80223e-09
-1.87805e-09
-1.97267e-09
-2.09084e-09
-2.23947e-09
-2.46498e-09
-2.6427e-09
4.83156e-11
-1.61912e-11
-3.74729e-11
-5.96486e-11
-8.22588e-11
-1.04658e-10
-1.26887e-10
-1.48985e-10
-1.70998e-10
-1.9299e-10
-2.14938e-10
-2.36896e-10
-2.58848e-10
-2.80767e-10
-3.02695e-10
-3.24652e-10
-3.46605e-10
-3.68553e-10
-3.90471e-10
-4.1243e-10
-4.34392e-10
-4.56362e-10
-4.78302e-10
-5.00234e-10
-5.22186e-10
-5.4413e-10
-5.66105e-10
-5.88048e-10
-6.09999e-10
-6.31948e-10
-6.53896e-10
-6.75858e-10
-6.97818e-10
-7.19756e-10
-7.41711e-10
-7.63672e-10
-7.85603e-10
-8.07566e-10
-8.29515e-10
-8.51474e-10
-8.73416e-10
-8.95379e-10
-9.17322e-10
-9.39285e-10
-9.61233e-10
-9.83188e-10
-1.00514e-09
-1.0271e-09
-1.04904e-09
-1.07098e-09
-1.09297e-09
-1.11492e-09
-1.13686e-09
-1.15882e-09
-1.18078e-09
-1.20277e-09
-1.22476e-09
-1.24674e-09
-1.26875e-09
-1.29079e-09
-1.31286e-09
-1.33503e-09
-1.35726e-09
-1.37963e-09
-1.40218e-09
-1.42499e-09
-1.44816e-09
-1.4719e-09
-1.49638e-09
-1.52197e-09
-1.54909e-09
-1.57838e-09
-1.61075e-09
-1.64734e-09
-1.6898e-09
-1.74029e-09
-1.8016e-09
-1.8773e-09
-1.97175e-09
-2.08967e-09
-2.23818e-09
-2.46362e-09
-2.64174e-09
4.91908e-11
-1.53494e-11
-3.71245e-11
-5.96117e-11
-8.22314e-11
-1.04659e-10
-1.26869e-10
-1.48971e-10
-1.70981e-10
-1.92987e-10
-2.14949e-10
-2.36889e-10
-2.58833e-10
-2.80789e-10
-3.02717e-10
-3.24645e-10
-3.46616e-10
-3.68539e-10
-3.90495e-10
-4.12451e-10
-4.34383e-10
-4.56324e-10
-4.78279e-10
-5.00248e-10
-5.22205e-10
-5.44156e-10
-5.66087e-10
-5.88049e-10
-6.09997e-10
-6.31961e-10
-6.5392e-10
-6.75859e-10
-6.97801e-10
-7.19753e-10
-7.4171e-10
-7.63663e-10
-7.85639e-10
-8.07564e-10
-8.29514e-10
-8.51462e-10
-8.73425e-10
-8.95377e-10
-9.17325e-10
-9.39282e-10
-9.61234e-10
-9.8319e-10
-1.00514e-09
-1.02709e-09
-1.04906e-09
-1.07101e-09
-1.09294e-09
-1.11491e-09
-1.13688e-09
-1.15883e-09
-1.18081e-09
-1.20276e-09
-1.22472e-09
-1.24674e-09
-1.26874e-09
-1.29078e-09
-1.31288e-09
-1.335e-09
-1.35724e-09
-1.37958e-09
-1.40213e-09
-1.42492e-09
-1.44809e-09
-1.47179e-09
-1.49624e-09
-1.52179e-09
-1.54886e-09
-1.57808e-09
-1.61035e-09
-1.64679e-09
-1.68911e-09
-1.73938e-09
-1.80048e-09
-1.87586e-09
-1.96999e-09
-2.08779e-09
-2.236e-09
-2.46069e-09
-2.63857e-09
5.00832e-11
-1.66212e-11
-3.77322e-11
-5.95917e-11
-8.21887e-11
-1.04618e-10
-1.26858e-10
-1.48957e-10
-1.70985e-10
-1.92976e-10
-2.14947e-10
-2.36878e-10
-2.58836e-10
-2.80758e-10
-3.02701e-10
-3.24645e-10
-3.466e-10
-3.68547e-10
-3.90471e-10
-4.12427e-10
-4.34388e-10
-4.56354e-10
-4.78297e-10
-5.00237e-10
-5.22183e-10
-5.44133e-10
-5.66099e-10
-5.88052e-10
-6.10005e-10
-6.31945e-10
-6.53882e-10
-6.75859e-10
-6.97807e-10
-7.19774e-10
-7.41707e-10
-7.63665e-10
-7.85614e-10
-8.07567e-10
-8.29513e-10
-8.51479e-10
-8.73422e-10