/*--------------------------------*- C++ -*----------------------------------*\
| =========                 |                                                 |
| \\      /  F ield         | OpenFOAM: The Open Source CFD Toolbox           |
|  \\    /   O peration     | Version:  v1906                                 |
|   \\  /    A nd           | Web:      www.OpenFOAM.com                      |
|    \\/     M anipulation  |                                                 |
\*---------------------------------------------------------------------------*/
FoamFile
{
    version     2.0;
    format      ascii;
    class       volScalarField;
    location    "0.49";
    object      p;
}
// * * * * * * * * * * * * * * * * * * * * * * * * * * * * * * * * * * * * * //

dimensions      [0 2 -2 0 0 0 0];


internalField   nonuniform List<scalar> 
243374
(
-3.58922e-15
-7.82139e-10
-5.80107e-10
-5.99923e-10
-6.37124e-10
-6.7251e-10
-7.06814e-10
-7.40849e-10
-7.73271e-10
-8.03921e-10
-8.31739e-10
-8.60051e-10
-8.85988e-10
-9.11136e-10
-9.35546e-10
-9.58711e-10
-9.81997e-10
-1.00469e-09
-1.02639e-09
-1.04967e-09
-1.07216e-09
-1.09437e-09
-1.11667e-09
-1.13859e-09
-1.16004e-09
-1.18317e-09
-1.20435e-09
-1.22662e-09
-1.24901e-09
-1.27098e-09
-1.29316e-09
-1.31505e-09
-1.33725e-09
-1.3586e-09
-1.38149e-09
-1.40373e-09
-1.42489e-09
-1.44772e-09
-1.46909e-09
-1.49158e-09
-1.51312e-09
-1.5359e-09
-1.55698e-09
-1.57984e-09
-1.60171e-09
-1.62428e-09
-1.64567e-09
-1.66758e-09
-1.69044e-09
-1.71285e-09
-1.73541e-09
-1.7574e-09
-1.77969e-09
-1.80327e-09
-1.82583e-09
-1.85055e-09
-1.87572e-09
-1.90153e-09
-1.92924e-09
-1.95914e-09
-1.99268e-09
-2.03145e-09
-2.07778e-09
-2.13378e-09
-2.20455e-09
-2.29566e-09
-2.41672e-09
-2.57766e-09
-2.79738e-09
-3.10044e-09
-3.5149e-09
-4.08583e-09
-4.88063e-09
-5.98032e-09
-7.48981e-09
-9.55732e-09
-1.23891e-08
-1.61954e-08
-2.10011e-08
-2.88522e-08
-7.21857e-10
-6.7279e-10
-5.89204e-10
-6.07713e-10
-6.41152e-10
-6.7568e-10
-7.09806e-10
-7.43175e-10
-7.74839e-10
-8.0547e-10
-8.34823e-10
-8.6155e-10
-8.87375e-10
-9.12135e-10
-9.36418e-10
-9.60021e-10
-9.83233e-10
-1.00608e-09
-1.02882e-09
-1.051e-09
-1.0736e-09
-1.09578e-09
-1.11778e-09
-1.13982e-09
-1.16234e-09
-1.18423e-09
-1.20623e-09
-1.22825e-09
-1.25021e-09
-1.27223e-09
-1.29413e-09
-1.31685e-09
-1.33861e-09
-1.3609e-09
-1.3826e-09
-1.40533e-09
-1.42718e-09
-1.44912e-09
-1.471e-09
-1.49333e-09
-1.515e-09
-1.53726e-09
-1.55964e-09
-1.58112e-09
-1.60357e-09
-1.62522e-09
-1.64737e-09
-1.66972e-09
-1.69154e-09
-1.71411e-09
-1.73615e-09
-1.75836e-09
-1.78102e-09
-1.80396e-09
-1.82751e-09
-1.85107e-09
-1.87565e-09
-1.90159e-09
-1.92916e-09
-1.9592e-09
-1.99264e-09
-2.03131e-09
-2.07648e-09
-2.13245e-09
-2.20271e-09
-2.29418e-09
-2.41499e-09
-2.57771e-09
-2.79894e-09
-3.103e-09
-3.52257e-09
-4.10076e-09
-4.90567e-09
-6.01308e-09
-7.54264e-09
-9.63867e-09
-1.24984e-08
-1.6349e-08
-2.13784e-08
-2.8336e-08
-1.10485e-09
-6.5802e-10
-5.8606e-10
-6.0752e-10
-6.39339e-10
-6.72691e-10
-7.06516e-10
-7.40847e-10
-7.72876e-10
-8.03882e-10
-8.32674e-10
-8.59853e-10
-8.85738e-10
-9.10727e-10
-9.34802e-10
-9.58328e-10
-9.81411e-10
-1.00475e-09
-1.02689e-09
-1.04932e-09
-1.07227e-09
-1.09389e-09
-1.11628e-09
-1.13829e-09
-1.16042e-09
-1.18257e-09
-1.20447e-09
-1.22665e-09
-1.24878e-09
-1.27072e-09
-1.29309e-09
-1.31511e-09
-1.33725e-09
-1.35878e-09
-1.38136e-09
-1.40347e-09
-1.42569e-09
-1.4477e-09
-1.46998e-09
-1.4915e-09
-1.51413e-09
-1.53592e-09
-1.55794e-09
-1.58003e-09
-1.60169e-09
-1.62367e-09
-1.64593e-09
-1.66773e-09
-1.69e-09
-1.71143e-09
-1.73416e-09
-1.75663e-09
-1.7791e-09
-1.80172e-09
-1.82493e-09
-1.84864e-09
-1.87306e-09
-1.89887e-09
-1.92633e-09
-1.95558e-09
-1.98891e-09
-2.02679e-09
-2.0715e-09
-2.12614e-09
-2.19659e-09
-2.28746e-09
-2.40768e-09
-2.56958e-09
-2.79074e-09
-3.0957e-09
-3.51644e-09
-4.09913e-09
-4.90905e-09
-6.02863e-09
-7.57414e-09
-9.69274e-09
-1.25788e-08
-1.64662e-08
-2.1554e-08
-2.81561e-08
-4.48728e-10
6.00396e-10
-4.65371e-10
-5.78703e-10
-6.0615e-10
-6.37796e-10
-6.72102e-10
-7.07081e-10
-7.40953e-10
-7.73774e-10
-8.04554e-10
-8.33944e-10
-8.61247e-10
-8.8705e-10
-9.11762e-10
-9.35939e-10
-9.59555e-10
-9.82945e-10
-1.00495e-09
-1.02787e-09
-1.05046e-09
-1.07235e-09
-1.09492e-09
-1.11713e-09
-1.13941e-09
-1.16135e-09
-1.18367e-09
-1.20579e-09
-1.22759e-09
-1.24963e-09
-1.27171e-09
-1.29345e-09
-1.31559e-09
-1.33738e-09
-1.36009e-09
-1.38182e-09
-1.40361e-09
-1.42549e-09
-1.44735e-09
-1.46927e-09
-1.49121e-09
-1.51347e-09
-1.53554e-09
-1.55779e-09
-1.57998e-09
-1.60256e-09
-1.62462e-09
-1.64591e-09
-1.66821e-09
-1.69038e-09
-1.7127e-09
-1.73495e-09
-1.75702e-09
-1.77938e-09
-1.80237e-09
-1.82505e-09
-1.8487e-09
-1.87297e-09
-1.8981e-09
-1.9248e-09
-1.95389e-09
-1.98648e-09
-2.0241e-09
-2.06882e-09
-2.12358e-09
-2.1922e-09
-2.28181e-09
-2.40111e-09
-2.56274e-09
-2.78318e-09
-3.08684e-09
-3.50795e-09
-4.09259e-09
-4.90549e-09
-6.03182e-09
-7.58723e-09
-9.72182e-09
-1.2629e-08
-1.65483e-08
-2.18584e-08
-2.98048e-08
-3.53907e-08
-2.22623e-10
-1.16735e-09
-6.70168e-10
-5.82514e-10
-6.04544e-10
-6.35752e-10
-6.70494e-10
-7.05787e-10
-7.39971e-10
-7.72698e-10
-8.03913e-10
-8.33141e-10
-8.5995e-10
-8.85917e-10
-9.10904e-10
-9.35062e-10
-9.5862e-10
-9.81699e-10
-1.00453e-09
-1.02725e-09
-1.04959e-09
-1.07206e-09
-1.09432e-09
-1.11647e-09
-1.13854e-09
-1.16072e-09
-1.18288e-09
-1.20472e-09
-1.22698e-09
-1.24899e-09
-1.27098e-09
-1.29296e-09
-1.31516e-09
-1.33702e-09
-1.35925e-09
-1.38112e-09
-1.40289e-09
-1.42487e-09
-1.44673e-09
-1.46881e-09
-1.491e-09
-1.5131e-09
-1.53508e-09
-1.55716e-09
-1.57912e-09
-1.60151e-09
-1.62347e-09
-1.64528e-09
-1.66748e-09
-1.68963e-09
-1.71151e-09
-1.73364e-09
-1.75595e-09
-1.77828e-09
-1.80075e-09
-1.82361e-09
-1.84695e-09
-1.87083e-09
-1.89598e-09
-1.92247e-09
-1.95124e-09
-1.98335e-09
-2.02021e-09
-2.06374e-09
-2.11723e-09
-2.18531e-09
-2.27396e-09
-2.39175e-09
-2.55184e-09
-2.77088e-09
-3.07313e-09
-3.49314e-09
-4.07731e-09
-4.89053e-09
-6.01931e-09
-7.58023e-09
-9.72359e-09
-1.26431e-08
-1.6577e-08
-2.17262e-08
-2.8263e-08
-3.56033e-08
-4.4516e-08
-3.71399e-11
2.70673e-10
-4.73393e-10
-5.75201e-10
-6.03729e-10
-6.34669e-10
-6.6975e-10
-7.05193e-10
-7.39639e-10
-7.72565e-10
-8.03984e-10
-8.33177e-10
-8.60461e-10
-8.86067e-10
-9.10933e-10
-9.35146e-10
-9.58625e-10
-9.81798e-10
-1.00465e-09
-1.02718e-09
-1.04968e-09
-1.07204e-09
-1.09432e-09
-1.11653e-09
-1.13854e-09
-1.16076e-09
-1.18287e-09
-1.20495e-09
-1.2269e-09
-1.24904e-09
-1.27096e-09
-1.29298e-09
-1.31507e-09
-1.33704e-09
-1.35895e-09
-1.38073e-09
-1.40262e-09
-1.42466e-09
-1.44664e-09
-1.4687e-09
-1.49096e-09
-1.51314e-09
-1.53505e-09
-1.55704e-09
-1.57898e-09
-1.60111e-09
-1.62319e-09
-1.64505e-09
-1.6673e-09
-1.68928e-09
-1.71126e-09
-1.73341e-09
-1.75554e-09
-1.77772e-09
-1.80012e-09
-1.82275e-09
-1.84591e-09
-1.86961e-09
-1.89428e-09
-1.92055e-09
-1.94874e-09
-1.98032e-09
-2.0164e-09
-2.05919e-09
-2.11165e-09
-2.17841e-09
-2.26544e-09
-2.38151e-09
-2.53949e-09
-2.75607e-09
-3.05585e-09
-3.47278e-09
-4.0542e-09
-4.86476e-09
-5.9918e-09
-7.55233e-09
-9.69703e-09
-1.26201e-08
-1.65656e-08
-2.19148e-08
-2.96142e-08
-3.57821e-08
-4.46111e-08
-2.61166e-10
-6.73274e-10
-5.93922e-10
-5.79174e-10
-6.02962e-10
-6.33937e-10
-6.6914e-10
-7.04862e-10
-7.39383e-10
-7.72334e-10
-8.03848e-10
-8.33026e-10
-8.60155e-10
-8.85925e-10
-9.10756e-10
-9.3497e-10
-9.58461e-10
-9.81716e-10
-1.00457e-09
-1.02704e-09
-1.04957e-09
-1.07192e-09
-1.09417e-09
-1.11641e-09
-1.13846e-09
-1.16065e-09
-1.18269e-09
-1.20483e-09
-1.22684e-09
-1.24886e-09
-1.2708e-09
-1.29289e-09
-1.3149e-09
-1.33676e-09
-1.35868e-09
-1.3805e-09
-1.40245e-09
-1.42438e-09
-1.44632e-09
-1.46832e-09
-1.49015e-09
-1.51196e-09
-1.53405e-09
-1.55627e-09
-1.5784e-09
-1.60065e-09
-1.6228e-09
-1.64478e-09
-1.66697e-09
-1.68897e-09
-1.71087e-09
-1.73287e-09
-1.75494e-09
-1.7771e-09
-1.7993e-09
-1.82177e-09
-1.84469e-09
-1.86802e-09
-1.89248e-09
-1.91828e-09
-1.94609e-09
-1.97695e-09
-2.01231e-09
-2.05408e-09
-2.10533e-09
-2.17068e-09
-2.2558e-09
-2.36978e-09
-2.52498e-09
-2.73841e-09
-3.03421e-09
-3.44676e-09
-4.02296e-09
-4.82767e-09
-5.94862e-09
-7.50301e-09
-9.64171e-09
-1.25593e-08
-1.64995e-08
-2.17416e-08
-2.86889e-08
-3.57358e-08
-4.46379e-08
-5.06044e-10
-6.73271e-10
-5.91304e-10
-5.78812e-10
-6.02881e-10
-6.3391e-10
-6.69123e-10
-7.04863e-10
-7.39394e-10
-7.72353e-10
-8.03818e-10
-8.33043e-10
-8.60178e-10
-8.85885e-10
-9.1079e-10
-9.3499e-10
-9.58477e-10
-9.81794e-10
-1.0044e-09
-1.02698e-09
-1.04957e-09
-1.0719e-09
-1.09419e-09
-1.11643e-09
-1.13842e-09
-1.16061e-09
-1.18269e-09
-1.20472e-09
-1.22686e-09
-1.24887e-09
-1.27083e-09
-1.29291e-09
-1.31489e-09
-1.33684e-09
-1.35871e-09
-1.38062e-09
-1.40266e-09
-1.42463e-09
-1.44668e-09
-1.46885e-09
-1.49079e-09
-1.51264e-09
-1.53456e-09
-1.55654e-09
-1.57851e-09
-1.60067e-09
-1.62275e-09
-1.64468e-09
-1.6668e-09
-1.68875e-09
-1.71062e-09
-1.73248e-09
-1.75452e-09
-1.77654e-09
-1.79856e-09
-1.8209e-09
-1.84357e-09
-1.86667e-09
-1.89076e-09
-1.91618e-09
-1.94343e-09
-1.9736e-09
-2.00813e-09
-2.04885e-09
-2.09889e-09
-2.16248e-09
-2.24556e-09
-2.35688e-09
-2.50882e-09
-2.71832e-09
-3.0091e-09
-3.41551e-09
-3.98435e-09
-4.78011e-09
-5.89058e-09
-7.43283e-09
-9.55793e-09
-1.2461e-08
-1.63863e-08
-2.1614e-08
-2.85525e-08
-3.55693e-08
-4.45478e-08
-6.49161e-10
2.16715e-10
-4.74429e-10
-5.76975e-10
-6.0374e-10
-6.34791e-10
-6.69688e-10
-7.05188e-10
-7.39619e-10
-7.7258e-10
-8.03893e-10
-8.33205e-10
-8.60499e-10
-8.86219e-10
-9.11039e-10
-9.35362e-10
-9.58669e-10
-9.81874e-10
-1.00499e-09
-1.02718e-09
-1.04961e-09
-1.07199e-09
-1.09433e-09
-1.11664e-09
-1.13856e-09
-1.16102e-09
-1.18281e-09
-1.20521e-09
-1.22694e-09
-1.24895e-09
-1.27116e-09
-1.29305e-09
-1.31537e-09
-1.33706e-09
-1.35891e-09
-1.38069e-09
-1.40262e-09
-1.42444e-09
-1.44628e-09
-1.46827e-09
-1.49042e-09
-1.51249e-09
-1.53447e-09
-1.55642e-09
-1.57848e-09
-1.60071e-09
-1.62289e-09
-1.64476e-09
-1.66696e-09
-1.68864e-09
-1.71065e-09
-1.73224e-09
-1.75414e-09
-1.7761e-09
-1.79807e-09
-1.82035e-09
-1.84262e-09
-1.86548e-09
-1.88917e-09
-1.91412e-09
-1.94105e-09
-1.9702e-09
-2.00384e-09
-2.04343e-09
-2.09197e-09
-2.15371e-09
-2.23469e-09
-2.3425e-09
-2.49093e-09
-2.69573e-09
-2.98024e-09
-3.3787e-09
-3.93806e-09
-4.72174e-09
-5.8173e-09
-7.34141e-09
-9.44518e-09
-1.23246e-08
-1.62279e-08
-2.15697e-08
-2.92535e-08
-3.53543e-08
-4.43386e-08
-6.80055e-10
-1.13834e-09
-6.7395e-10
-5.82014e-10
-6.04541e-10
-6.35735e-10
-6.70438e-10
-7.05851e-10
-7.39891e-10
-7.72756e-10
-8.03867e-10
-8.3304e-10
-8.60031e-10
-8.85725e-10
-9.10908e-10
-9.34913e-10
-9.58528e-10
-9.81848e-10
-1.00417e-09
-1.02709e-09
-1.04959e-09
-1.07191e-09
-1.09415e-09
-1.11635e-09
-1.13851e-09
-1.16037e-09
-1.18264e-09
-1.20445e-09
-1.22677e-09
-1.24888e-09
-1.2706e-09
-1.29292e-09
-1.31457e-09
-1.33703e-09
-1.35902e-09
-1.38102e-09
-1.40301e-09
-1.42485e-09
-1.44677e-09
-1.46874e-09
-1.49072e-09
-1.51278e-09
-1.53488e-09
-1.5567e-09
-1.57892e-09
-1.6009e-09
-1.62291e-09
-1.64461e-09
-1.66628e-09
-1.68835e-09
-1.70977e-09
-1.73162e-09
-1.75365e-09
-1.77515e-09
-1.79706e-09
-1.81876e-09
-1.84118e-09
-1.86374e-09
-1.88707e-09
-1.91172e-09
-1.93745e-09
-1.96651e-09
-1.99888e-09
-2.03743e-09
-2.08445e-09
-2.14405e-09
-2.22195e-09
-2.32682e-09
-2.47142e-09
-2.66979e-09
-2.94812e-09
-3.33737e-09
-3.88507e-09
-4.65368e-09
-5.73033e-09
-7.23097e-09
-9.3063e-09
-1.21533e-08
-1.60124e-08
-2.10687e-08
-2.75506e-08
-3.50083e-08
-4.40451e-08
-5.0772e-10
5.81686e-10
-4.70704e-10
-5.78729e-10
-6.05997e-10
-6.37496e-10
-6.72055e-10
-7.06967e-10
-7.41188e-10
-7.73638e-10
-8.04836e-10
-8.33779e-10
-8.61086e-10
-8.86962e-10
-9.1192e-10
-9.35987e-10
-9.59622e-10
-9.82694e-10
-1.0055e-09
-1.02796e-09
-1.04989e-09
-1.07233e-09
-1.09513e-09
-1.11717e-09
-1.13936e-09
-1.16158e-09
-1.18358e-09
-1.20578e-09
-1.22782e-09
-1.24974e-09
-1.27179e-09
-1.29373e-09
-1.31609e-09
-1.3379e-09
-1.35988e-09
-1.38206e-09
-1.40433e-09
-1.4256e-09
-1.44738e-09
-1.46928e-09
-1.49129e-09
-1.51331e-09
-1.53555e-09
-1.55752e-09
-1.5799e-09
-1.60188e-09
-1.62383e-09
-1.64543e-09
-1.6673e-09
-1.68903e-09
-1.71067e-09
-1.73237e-09
-1.75391e-09
-1.77568e-09
-1.79732e-09
-1.81925e-09
-1.84107e-09
-1.86321e-09
-1.88567e-09
-1.91025e-09
-1.93586e-09
-1.96359e-09
-1.99523e-09
-2.03248e-09
-2.07786e-09
-2.13578e-09
-2.21048e-09
-2.31132e-09
-2.45193e-09
-2.64336e-09
-2.91319e-09
-3.29175e-09
-3.82599e-09
-4.57658e-09
-5.63077e-09
-7.10218e-09
-9.14216e-09
-1.19483e-08
-1.57641e-08
-2.09723e-08
-2.88691e-08
-3.46245e-08
-4.37049e-08
-4.27732e-10
-1.10994e-09
-6.539e-10
-5.85664e-10
-6.07128e-10
-6.38731e-10
-6.72661e-10
-7.06879e-10
-7.40283e-10
-7.72994e-10
-8.03794e-10
-8.33005e-10
-8.60049e-10
-8.85793e-10
-9.10583e-10
-9.34598e-10
-9.58014e-10
-9.8148e-10
-1.00429e-09
-1.02666e-09
-1.04951e-09
-1.07199e-09
-1.09349e-09
-1.11604e-09
-1.1381e-09
-1.16041e-09
-1.18244e-09
-1.20444e-09
-1.2263e-09
-1.24834e-09
-1.2704e-09
-1.29244e-09
-1.31453e-09
-1.33666e-09
-1.35879e-09
-1.38081e-09
-1.40297e-09
-1.42548e-09
-1.44723e-09
-1.46932e-09
-1.49117e-09
-1.51307e-09
-1.53546e-09
-1.5573e-09
-1.57871e-09
-1.60055e-09
-1.62211e-09
-1.64396e-09
-1.66568e-09
-1.68771e-09
-1.7091e-09
-1.7301e-09
-1.75213e-09
-1.77373e-09
-1.7954e-09
-1.81649e-09
-1.83864e-09
-1.86077e-09
-1.88373e-09
-1.90678e-09
-1.9316e-09
-1.95867e-09
-1.98927e-09
-2.02521e-09
-2.06872e-09
-2.12369e-09
-2.19668e-09
-2.29239e-09
-2.42772e-09
-2.61443e-09
-2.87516e-09
-3.24177e-09
-3.76099e-09
-4.49138e-09
-5.51929e-09
-6.95778e-09
-8.95572e-09
-1.17133e-08
-1.54683e-08
-2.04228e-08
-2.69346e-08
-3.40442e-08
-7.17819e-10
-6.71092e-10
-5.88646e-10
-6.07025e-10
-6.42289e-10
-6.75647e-10
-7.0964e-10
-7.42784e-10
-7.74832e-10
-8.05362e-10
-8.33927e-10
-8.61251e-10
-8.87179e-10
-9.12538e-10
-9.36357e-10
-9.60421e-10
-9.8302e-10
-1.00566e-09
-1.02833e-09
-1.05134e-09
-1.07347e-09
-1.09607e-09
-1.11802e-09
-1.13973e-09
-1.16175e-09
-1.18388e-09
-1.20598e-09
-1.22818e-09
-1.25041e-09
-1.27214e-09
-1.29442e-09
-1.31627e-09
-1.33825e-09
-1.36019e-09
-1.38233e-09
-1.40446e-09
-1.42692e-09
-1.44927e-09
-1.47092e-09
-1.49289e-09
-1.51511e-09
-1.53682e-09
-1.55868e-09
-1.58006e-09
-1.60204e-09
-1.62424e-09
-1.6455e-09
-1.66747e-09
-1.68891e-09
-1.71037e-09
-1.73289e-09
-1.75385e-09
-1.77473e-09
-1.79632e-09
-1.81833e-09
-1.83926e-09
-1.86094e-09
-1.8831e-09
-1.90676e-09
-1.93024e-09
-1.95729e-09
-1.98648e-09
-2.02079e-09
-2.06258e-09
-2.1164e-09
-2.1858e-09
-2.28121e-09
-2.40845e-09
-2.58785e-09
-2.83914e-09
-3.1931e-09
-3.69645e-09
-4.40341e-09
-5.40277e-09
-6.80354e-09
-8.75306e-09
-1.14586e-08
-1.51494e-08
-2.00242e-08
-2.68538e-08
1.06405e-12
-7.79803e-10
-5.79558e-10
-5.9982e-10
-6.36919e-10
-6.72357e-10
-7.07211e-10
-7.40393e-10
-7.732e-10
-8.03838e-10
-8.33054e-10
-8.60246e-10
-8.86031e-10
-9.10643e-10
-9.35017e-10
-9.57889e-10
-9.81793e-10
-1.00466e-09
-1.02711e-09
-1.04993e-09
-1.07204e-09
-1.0938e-09
-1.11575e-09
-1.13851e-09
-1.16102e-09
-1.18264e-09
-1.2047e-09
-1.22673e-09
-1.24765e-09
-1.27077e-09
-1.29329e-09
-1.31501e-09
-1.33698e-09
-1.35926e-09
-1.38106e-09
-1.40329e-09
-1.42589e-09
-1.44768e-09
-1.46952e-09
-1.49125e-09
-1.51331e-09
-1.53467e-09
-1.55711e-09
-1.57886e-09
-1.6007e-09
-1.62161e-09
-1.64419e-09
-1.66565e-09
-1.68781e-09
-1.70895e-09
-1.73007e-09
-1.75109e-09
-1.77319e-09
-1.79482e-09
-1.81558e-09
-1.83693e-09
-1.85843e-09
-1.88044e-09
-1.90229e-09
-1.92643e-09
-1.95211e-09
-1.98056e-09
-2.01356e-09
-2.05393e-09
-2.10344e-09
-2.17053e-09
-2.26e-09
-2.38304e-09
-2.55271e-09
-2.79407e-09
-3.13309e-09
-3.61752e-09
-4.29823e-09
-5.27164e-09
-6.63321e-09
-8.52768e-09
-1.11833e-08
-1.48037e-08
-1.94288e-08
-2.71527e-08
4.6948e-11
-5.89582e-10
-5.79951e-10
-6.0741e-10
-6.38486e-10
-6.7386e-10
-7.08375e-10
-7.41311e-10
-7.73278e-10
-8.03395e-10
-8.31942e-10
-8.5967e-10
-8.8578e-10
-9.11008e-10
-9.35112e-10
-9.58097e-10
-9.81704e-10
-1.00443e-09
-1.02783e-09
-1.0491e-09
-1.07198e-09
-1.09417e-09
-1.11621e-09
-1.13779e-09
-1.16063e-09
-1.18256e-09
-1.20487e-09
-1.2263e-09
-1.24834e-09
-1.2712e-09
-1.29278e-09
-1.31488e-09
-1.33624e-09
-1.35911e-09
-1.38109e-09
-1.40304e-09
-1.42465e-09
-1.4469e-09
-1.46921e-09
-1.49119e-09
-1.51277e-09
-1.53539e-09
-1.55718e-09
-1.5798e-09
-1.60213e-09
-1.62362e-09
-1.6465e-09
-1.66837e-09
-1.69098e-09
-1.71377e-09
-1.73617e-09
-1.75899e-09
-1.78203e-09
-1.8053e-09
-1.82937e-09
-1.85471e-09
-1.87967e-09
-1.9061e-09
-1.93509e-09
-1.96739e-09
-2.00206e-09
-2.04191e-09
-2.08931e-09
-2.14614e-09
-2.21669e-09
-2.30694e-09
-2.4239e-09
-2.57897e-09
-2.78923e-09
-3.07055e-09
-3.44939e-09
-3.97874e-09
-4.69686e-09
-5.68443e-09
-7.03937e-09
-8.89797e-09
-1.14464e-08
-1.49274e-08
-1.9624e-08
-2.68773e-08
-8.50995e-10
-9.31821e-10
-5.49099e-10
-5.78853e-10
-6.11363e-10
-6.43953e-10
-6.76909e-10
-7.1034e-10
-7.42825e-10
-7.739e-10
-8.04411e-10
-8.33127e-10
-8.6031e-10
-8.87319e-10
-9.11625e-10
-9.36103e-10
-9.5999e-10
-9.82597e-10
-1.00562e-09
-1.02829e-09
-1.05075e-09
-1.07255e-09
-1.09512e-09
-1.11744e-09
-1.13991e-09
-1.16204e-09
-1.18359e-09
-1.2056e-09
-1.228e-09
-1.24989e-09
-1.27213e-09
-1.29431e-09
-1.31587e-09
-1.33811e-09
-1.35999e-09
-1.38234e-09
-1.40386e-09
-1.4265e-09
-1.44862e-09
-1.47004e-09
-1.49238e-09
-1.51508e-09
-1.53641e-09
-1.55848e-09
-1.58131e-09
-1.60283e-09
-1.62521e-09
-1.64747e-09
-1.66966e-09
-1.69235e-09
-1.71406e-09
-1.73659e-09
-1.7598e-09
-1.78286e-09
-1.80618e-09
-1.83003e-09
-1.85423e-09
-1.88002e-09
-1.90709e-09
-1.93546e-09
-1.96682e-09
-2.0024e-09
-2.04173e-09
-2.08832e-09
-2.14555e-09
-2.21695e-09
-2.30775e-09
-2.42674e-09
-2.58465e-09
-2.79611e-09
-3.08298e-09
-3.47916e-09
-4.01227e-09
-4.75064e-09
-5.76465e-09
-7.15843e-09
-9.07095e-09
-1.16882e-08
-1.52594e-08
-2.01169e-08
-2.6384e-08
-3.23017e-08
-3.86371e-10
3.85593e-10
-5.1061e-10
-5.74497e-10
-6.08172e-10
-6.40602e-10
-6.73655e-10
-7.07038e-10
-7.398e-10
-7.72117e-10
-8.02553e-10
-8.32089e-10
-8.60144e-10
-8.85737e-10
-9.10996e-10
-9.35348e-10
-9.58446e-10
-9.82215e-10
-1.00469e-09
-1.02702e-09
-1.04999e-09
-1.07232e-09
-1.09463e-09
-1.11657e-09
-1.13836e-09
-1.16047e-09
-1.18261e-09
-1.2051e-09
-1.22673e-09
-1.2488e-09
-1.27092e-09
-1.29253e-09
-1.315e-09
-1.337e-09
-1.35902e-09
-1.3809e-09
-1.40374e-09
-1.42545e-09
-1.44717e-09
-1.46953e-09
-1.49154e-09
-1.51386e-09
-1.53574e-09
-1.55783e-09
-1.57924e-09
-1.60213e-09
-1.62405e-09
-1.64645e-09
-1.66853e-09
-1.69102e-09
-1.71342e-09
-1.73551e-09
-1.75855e-09
-1.78137e-09
-1.80517e-09
-1.8283e-09
-1.85233e-09
-1.87793e-09
-1.90463e-09
-1.93344e-09
-1.9644e-09
-1.99858e-09
-2.03841e-09
-2.0852e-09
-2.14244e-09
-2.21295e-09
-2.30478e-09
-2.42403e-09
-2.58423e-09
-2.79948e-09
-3.09101e-09
-3.48966e-09
-4.04092e-09
-4.79706e-09
-5.83969e-09
-7.27237e-09
-9.23769e-09
-1.1923e-08
-1.55782e-08
-2.05573e-08
-2.81481e-08
-3.3162e-08
-4.00842e-08
-3.934e-10
-5.82127e-10
-5.32696e-10
-5.73153e-10
-6.05088e-10
-6.38131e-10
-6.71989e-10
-7.05199e-10
-7.39744e-10
-7.71799e-10
-8.02743e-10
-8.32539e-10
-8.59245e-10
-8.86095e-10
-9.11555e-10
-9.35347e-10
-9.59528e-10
-9.81818e-10
-1.0054e-09
-1.02759e-09
-1.04993e-09
-1.0722e-09
-1.09392e-09
-1.11728e-09
-1.13963e-09
-1.16086e-09
-1.1828e-09
-1.20438e-09
-1.22779e-09
-1.24969e-09
-1.27138e-09
-1.29281e-09
-1.31517e-09
-1.33792e-09
-1.36037e-09
-1.38189e-09
-1.40243e-09
-1.42583e-09
-1.44774e-09
-1.46913e-09
-1.49109e-09
-1.51414e-09
-1.53569e-09
-1.55787e-09
-1.58083e-09
-1.60133e-09
-1.62389e-09
-1.6472e-09
-1.66903e-09
-1.69115e-09
-1.7125e-09
-1.73573e-09
-1.75856e-09
-1.78204e-09
-1.80364e-09
-1.8281e-09
-1.85241e-09
-1.87696e-09
-1.90416e-09
-1.93126e-09
-1.96284e-09
-1.99695e-09
-2.03583e-09
-2.08271e-09
-2.13869e-09
-2.21108e-09
-2.30203e-09
-2.42202e-09
-2.58292e-09
-2.79883e-09
-3.0957e-09
-3.50249e-09
-4.06306e-09
-4.83569e-09
-5.90342e-09
-7.37065e-09
-9.38407e-09
-1.21298e-08
-1.58585e-08
-2.08942e-08
-2.75617e-08
-3.36729e-08
-4.0673e-08
-4.4581e-10
-3.88559e-10
-4.84439e-10
-5.70183e-10
-6.03681e-10
-6.37977e-10
-6.73547e-10
-7.08971e-10
-7.4172e-10
-7.74164e-10
-8.04851e-10
-8.33297e-10
-8.61702e-10
-8.86681e-10
-9.11933e-10
-9.36759e-10
-9.59687e-10
-9.83711e-10
-1.00567e-09
-1.02792e-09
-1.0505e-09
-1.07315e-09
-1.09634e-09
-1.11748e-09
-1.13947e-09
-1.16126e-09
-1.18443e-09
-1.20675e-09
-1.22736e-09
-1.24987e-09
-1.27187e-09
-1.29476e-09
-1.31659e-09
-1.33824e-09
-1.35953e-09
-1.38238e-09
-1.40585e-09
-1.42606e-09
-1.44844e-09
-1.4709e-09
-1.49345e-09
-1.51471e-09
-1.53721e-09
-1.55822e-09
-1.58075e-09
-1.60401e-09
-1.62564e-09
-1.6466e-09
-1.66887e-09
-1.69141e-09
-1.71482e-09
-1.73668e-09
-1.75848e-09
-1.78092e-09
-1.80544e-09
-1.82752e-09
-1.85175e-09
-1.8775e-09
-1.90304e-09
-1.93187e-09
-1.96092e-09
-1.99504e-09
-2.0345e-09
-2.07997e-09
-2.13745e-09
-2.20717e-09
-2.29835e-09
-2.41971e-09
-2.58045e-09
-2.8004e-09
-3.10102e-09
-3.51299e-09
-4.08362e-09
-4.87014e-09
-5.95887e-09
-7.45642e-09
-9.51288e-09
-1.23117e-08
-1.61053e-08
-2.12612e-08
-2.81077e-08
-3.39737e-08
-4.35403e-08
-5.00827e-10
-8.68145e-10
-5.5343e-10
-5.80209e-10
-6.08734e-10
-6.43493e-10
-6.78779e-10
-7.13077e-10
-7.45917e-10
-7.77258e-10
-8.07741e-10
-8.36992e-10
-8.63182e-10
-8.88956e-10
-9.1377e-10
-9.37652e-10
-9.61243e-10
-9.84222e-10
-1.00723e-09
-1.03054e-09
-1.05197e-09
-1.07501e-09
-1.09696e-09
-1.11912e-09
-1.14122e-09
-1.16346e-09
-1.18491e-09
-1.20731e-09
-1.22986e-09
-1.25134e-09
-1.27306e-09
-1.29505e-09
-1.31821e-09
-1.33963e-09
-1.3625e-09
-1.38347e-09
-1.40641e-09
-1.42915e-09
-1.45034e-09
-1.4735e-09
-1.49512e-09
-1.51752e-09
-1.53955e-09
-1.56129e-09
-1.58268e-09
-1.60459e-09
-1.626e-09
-1.64909e-09
-1.67101e-09
-1.69271e-09
-1.71513e-09
-1.73696e-09
-1.75907e-09
-1.78329e-09
-1.805e-09
-1.82901e-09
-1.85204e-09
-1.87667e-09
-1.90301e-09
-1.93008e-09
-1.96101e-09
-1.99409e-09
-2.03287e-09
-2.07743e-09
-2.13355e-09
-2.20315e-09
-2.29526e-09
-2.41475e-09
-2.57757e-09
-2.79844e-09
-3.10077e-09
-3.51827e-09
-4.09522e-09
-4.89392e-09
-5.99784e-09
-7.51921e-09
-9.6065e-09
-1.24507e-08
-1.62913e-08
-2.14392e-08
-2.79832e-08
-3.4712e-08
-4.3997e-08
-5.22268e-10
-9.39384e-10
-5.90878e-10
-5.83039e-10
-6.10352e-10
-6.4404e-10
-6.79086e-10
-7.12837e-10
-7.45483e-10
-7.76375e-10
-8.06986e-10
-8.35897e-10
-8.62677e-10
-8.87948e-10
-9.12716e-10
-9.36797e-10
-9.59968e-10
-9.83329e-10
-1.00605e-09
-1.02909e-09
-1.05092e-09
-1.07391e-09
-1.0951e-09
-1.11754e-09
-1.13985e-09
-1.16152e-09
-1.18437e-09
-1.20604e-09
-1.2278e-09
-1.25013e-09
-1.27232e-09
-1.29481e-09
-1.31642e-09
-1.33908e-09
-1.36035e-09
-1.3832e-09
-1.40518e-09
-1.42768e-09
-1.4494e-09
-1.472e-09
-1.49392e-09
-1.51614e-09
-1.53815e-09
-1.55994e-09
-1.58153e-09
-1.60346e-09
-1.62523e-09
-1.64761e-09
-1.66918e-09
-1.6909e-09
-1.71358e-09
-1.73592e-09
-1.75791e-09
-1.78065e-09
-1.80356e-09
-1.82622e-09
-1.85019e-09
-1.87473e-09
-1.89986e-09
-1.92811e-09
-1.95692e-09
-1.99039e-09
-2.02872e-09
-2.07292e-09
-2.12811e-09
-2.19781e-09
-2.28793e-09
-2.40861e-09
-2.57002e-09
-2.79081e-09
-3.09458e-09
-3.51388e-09
-4.09485e-09
-4.90091e-09
-6.01566e-09
-7.55381e-09
-9.66418e-09
-1.25401e-08
-1.6414e-08
-2.15631e-08
-2.81187e-08
-3.52167e-08
-4.43505e-08
-5.20378e-10
-6.67469e-10
-5.14175e-10
-5.79244e-10
-6.10108e-10
-6.44389e-10
-6.79104e-10
-7.12964e-10
-7.45537e-10
-7.768e-10
-8.07417e-10
-8.36427e-10
-8.64043e-10
-8.89504e-10
-9.14109e-10
-9.3821e-10
-9.61522e-10
-9.84714e-10
-1.00736e-09
-1.02934e-09
-1.05211e-09
-1.07417e-09
-1.09658e-09
-1.11902e-09
-1.14121e-09
-1.1632e-09
-1.18536e-09
-1.20748e-09
-1.22958e-09
-1.25141e-09
-1.27343e-09
-1.2952e-09
-1.3175e-09
-1.33933e-09
-1.36196e-09
-1.38341e-09
-1.40546e-09
-1.42741e-09
-1.44939e-09
-1.47154e-09
-1.49352e-09
-1.51576e-09
-1.53785e-09
-1.55972e-09
-1.58161e-09
-1.60376e-09
-1.62633e-09
-1.64767e-09
-1.67034e-09
-1.69214e-09
-1.71366e-09
-1.73661e-09
-1.75858e-09
-1.78158e-09
-1.80401e-09
-1.82699e-09
-1.85029e-09
-1.87463e-09
-1.89981e-09
-1.92653e-09
-1.95604e-09
-1.98867e-09
-2.02553e-09
-2.07004e-09
-2.12486e-09
-2.19301e-09
-2.28305e-09
-2.40219e-09
-2.56283e-09
-2.7825e-09
-3.08589e-09
-3.50562e-09
-4.08826e-09
-4.89769e-09
-6.01931e-09
-7.56795e-09
-9.69415e-09
-1.25916e-08
-1.64986e-08
-2.17445e-08
-2.85117e-08
-3.71409e-08
-4.4779e-08
-5.27757e-10
-9.40962e-10
-6.2709e-10
-5.81902e-10
-6.09611e-10
-6.4391e-10
-6.78482e-10
-7.12365e-10
-7.44915e-10
-7.76267e-10
-8.07027e-10
-8.36167e-10
-8.63429e-10
-8.88986e-10
-9.13634e-10
-9.37155e-10
-9.60663e-10
-9.83933e-10
-1.00658e-09
-1.02935e-09
-1.05138e-09
-1.07408e-09
-1.09605e-09
-1.11821e-09
-1.14059e-09
-1.16217e-09
-1.18478e-09
-1.20627e-09
-1.22882e-09
-1.25053e-09
-1.27287e-09
-1.2949e-09
-1.31702e-09
-1.3391e-09
-1.361e-09
-1.38277e-09
-1.40482e-09
-1.42674e-09
-1.44884e-09
-1.4709e-09
-1.49288e-09
-1.51507e-09
-1.53715e-09
-1.55898e-09
-1.58084e-09
-1.60313e-09
-1.62538e-09
-1.6473e-09
-1.6694e-09
-1.69143e-09
-1.71334e-09
-1.7356e-09
-1.75742e-09
-1.78032e-09
-1.80248e-09
-1.8255e-09
-1.84863e-09
-1.87253e-09
-1.89761e-09
-1.92432e-09
-1.95313e-09
-1.98517e-09
-2.02175e-09
-2.06508e-09
-2.1184e-09
-2.18624e-09
-2.275e-09
-2.39263e-09
-2.55186e-09
-2.77052e-09
-3.0724e-09
-3.4911e-09
-4.0733e-09
-4.88335e-09
-6.00742e-09
-7.56125e-09
-9.69612e-09
-1.26054e-08
-1.65264e-08
-2.16943e-08
-2.82434e-08
-3.71957e-08
-4.51655e-08
-4.70119e-10
-4.37151e-10
-5.13199e-10
-5.77184e-10
-6.09864e-10
-6.43718e-10
-6.78171e-10
-7.11978e-10
-7.44624e-10
-7.76136e-10
-8.06985e-10
-8.36287e-10
-8.63663e-10
-8.89347e-10
-9.13777e-10
-9.37869e-10
-9.61409e-10
-9.84022e-10
-1.00712e-09
-1.02947e-09
-1.05152e-09
-1.07414e-09
-1.09619e-09
-1.11867e-09
-1.14063e-09
-1.16274e-09
-1.18486e-09
-1.20693e-09
-1.22888e-09
-1.25106e-09
-1.27299e-09
-1.29489e-09
-1.31705e-09
-1.33906e-09
-1.36073e-09
-1.3826e-09
-1.40455e-09
-1.4264e-09
-1.44858e-09
-1.47066e-09
-1.49265e-09
-1.51476e-09
-1.53683e-09
-1.55852e-09
-1.58048e-09
-1.60276e-09
-1.62516e-09
-1.64718e-09
-1.66926e-09
-1.69119e-09
-1.71316e-09
-1.73543e-09
-1.75765e-09
-1.77973e-09
-1.80204e-09
-1.82463e-09
-1.84779e-09
-1.87175e-09
-1.89611e-09
-1.92254e-09
-1.95066e-09
-1.9822e-09
-2.01796e-09
-2.06074e-09
-2.11302e-09
-2.1795e-09
-2.26682e-09
-2.38235e-09
-2.53957e-09
-2.75589e-09
-3.05503e-09
-3.47083e-09
-4.05028e-09
-4.85777e-09
-5.98e-09
-7.53315e-09
-9.66912e-09
-1.25818e-08
-1.65127e-08
-2.17938e-08
-2.87441e-08
-3.73435e-08
-4.53908e-08
-5.08606e-10
-6.91043e-10
-5.81769e-10
-5.79413e-10
-6.09616e-10
-6.43515e-10
-6.77986e-10
-7.11832e-10
-7.44481e-10
-7.75994e-10
-8.06879e-10
-8.36206e-10
-8.6365e-10
-8.89274e-10
-9.13675e-10
-9.37599e-10
-9.61207e-10
-9.83997e-10
-1.00677e-09
-1.02945e-09
-1.05147e-09
-1.07408e-09
-1.09606e-09
-1.11852e-09
-1.14055e-09
-1.16264e-09
-1.18464e-09
-1.20667e-09
-1.22884e-09
-1.25087e-09
-1.27284e-09
-1.29483e-09
-1.31683e-09
-1.3388e-09
-1.36051e-09
-1.38242e-09
-1.40443e-09
-1.42628e-09
-1.44849e-09
-1.47058e-09
-1.49255e-09
-1.51457e-09
-1.53659e-09
-1.55826e-09
-1.58021e-09
-1.60246e-09
-1.62474e-09
-1.64679e-09
-1.66891e-09
-1.69096e-09
-1.71279e-09
-1.73488e-09
-1.75693e-09
-1.77912e-09
-1.80129e-09
-1.82362e-09
-1.84666e-09
-1.87006e-09
-1.89446e-09
-1.92017e-09
-1.948e-09
-1.97876e-09
-2.01378e-09
-2.05574e-09
-2.10662e-09
-2.17181e-09
-2.25714e-09
-2.37055e-09
-2.52506e-09
-2.73823e-09
-3.03333e-09
-3.44467e-09
-4.01898e-09
-4.82063e-09
-5.9367e-09
-7.48351e-09
-9.61293e-09
-1.252e-08
-1.64454e-08
-2.16624e-08
-2.84241e-08
-3.72499e-08
-4.54771e-08
-5.14222e-10
-7.00712e-10
-5.82716e-10
-5.79429e-10
-6.09567e-10
-6.4351e-10
-6.77995e-10
-7.11832e-10
-7.44496e-10
-7.76e-10
-8.06846e-10
-8.36214e-10
-8.63611e-10
-8.89314e-10
-9.13682e-10
-9.37574e-10
-9.61128e-10
-9.84012e-10
-1.00675e-09
-1.02945e-09
-1.05146e-09
-1.07407e-09
-1.09607e-09
-1.11848e-09
-1.14052e-09
-1.16265e-09
-1.18456e-09
-1.20674e-09
-1.22877e-09
-1.25092e-09
-1.27284e-09
-1.29485e-09
-1.31676e-09
-1.33881e-09
-1.36046e-09
-1.38235e-09
-1.40444e-09
-1.4262e-09
-1.44845e-09
-1.47053e-09
-1.49254e-09
-1.51447e-09
-1.53651e-09
-1.55821e-09
-1.58017e-09
-1.60238e-09
-1.62458e-09
-1.64663e-09
-1.66874e-09
-1.69071e-09
-1.71258e-09
-1.73448e-09
-1.75649e-09
-1.77848e-09
-1.80051e-09
-1.82267e-09
-1.84549e-09
-1.86864e-09
-1.89267e-09
-1.91803e-09
-1.94516e-09
-1.97538e-09
-2.00956e-09
-2.05034e-09
-2.10009e-09
-2.16352e-09
-2.24655e-09
-2.35738e-09
-2.50868e-09
-2.71778e-09
-3.00782e-09
-3.41292e-09
-3.97974e-09
-4.77235e-09
-5.87777e-09
-7.41224e-09
-9.52789e-09
-1.24202e-08
-1.63307e-08
-2.1535e-08
-2.82957e-08
-3.71098e-08
-4.53824e-08
-4.67586e-10
-4.70299e-10
-5.148e-10
-5.777e-10
-6.09691e-10
-6.43787e-10
-6.78138e-10
-7.11982e-10
-7.44612e-10
-7.76133e-10
-8.06967e-10
-8.36269e-10
-8.63625e-10
-8.89354e-10
-9.13773e-10
-9.37657e-10
-9.60961e-10
-9.83992e-10
-1.00691e-09
-1.0294e-09
-1.05153e-09
-1.07406e-09
-1.09622e-09
-1.11841e-09
-1.1405e-09
-1.16271e-09
-1.18473e-09
-1.2068e-09
-1.22885e-09
-1.25098e-09
-1.27313e-09
-1.29485e-09
-1.31696e-09
-1.33894e-09
-1.36061e-09
-1.38246e-09
-1.40456e-09
-1.42621e-09
-1.44837e-09
-1.47041e-09
-1.49245e-09
-1.51445e-09
-1.53643e-09
-1.55826e-09
-1.58024e-09
-1.60252e-09
-1.62464e-09
-1.64665e-09
-1.66877e-09
-1.69052e-09
-1.71247e-09
-1.73414e-09
-1.75622e-09
-1.77805e-09
-1.80004e-09
-1.8219e-09
-1.84433e-09
-1.86727e-09
-1.89103e-09
-1.91599e-09
-1.94246e-09
-1.97193e-09
-2.00545e-09
-2.04469e-09
-2.09303e-09
-2.15474e-09
-2.23554e-09
-2.3428e-09
-2.49046e-09
-2.69449e-09
-2.97838e-09
-3.37555e-09
-3.93259e-09
-4.71289e-09
-5.80318e-09
-7.31947e-09
-9.41384e-09
-1.22823e-08
-1.6169e-08
-2.14211e-08
-2.83521e-08
-3.68972e-08
-4.50828e-08
-5.46852e-10
-9.42568e-10
-6.25458e-10
-5.81704e-10
-6.09779e-10
-6.43915e-10
-6.78402e-10
-7.12348e-10
-7.4491e-10
-7.76299e-10
-8.06956e-10
-8.36139e-10
-8.63391e-10
-8.89146e-10
-9.13423e-10
-9.37504e-10
-9.60799e-10
-9.8385e-10
-1.00643e-09
-1.02927e-09
-1.05147e-09
-1.07392e-09
-1.09619e-09
-1.11826e-09
-1.14049e-09
-1.16241e-09
-1.18465e-09
-1.20646e-09
-1.22867e-09
-1.25053e-09
-1.27261e-09
-1.29472e-09
-1.31672e-09
-1.33886e-09
-1.36084e-09
-1.38263e-09
-1.40494e-09
-1.42644e-09
-1.44854e-09
-1.47059e-09
-1.49263e-09
-1.51467e-09