/*--------------------------------*- C++ -*----------------------------------*\
| =========                 |                                                 |
| \\      /  F ield         | OpenFOAM: The Open Source CFD Toolbox           |
|  \\    /   O peration     | Version:  v1906                                 |
|   \\  /    A nd           | Web:      www.OpenFOAM.com                      |
|    \\/     M anipulation  |                                                 |
\*---------------------------------------------------------------------------*/
FoamFile
{
    version     2.0;
    format      ascii;
    class       volScalarField;
    location    "14.5";
    object      p;
}
// * * * * * * * * * * * * * * * * * * * * * * * * * * * * * * * * * * * * * //

dimensions      [0 2 -2 0 0 0 0];


internalField   nonuniform List<scalar> 
243374
(
6.98326e-17
-4.00902e-11
-5.95983e-11
-8.2591e-11
-1.05275e-10
-1.27626e-10
-1.49872e-10
-1.71974e-10
-1.94055e-10
-2.16088e-10
-2.38101e-10
-2.60122e-10
-2.82152e-10
-3.04136e-10
-3.26159e-10
-3.48126e-10
-3.70181e-10
-3.922e-10
-4.14228e-10
-4.36244e-10
-4.58294e-10
-4.80284e-10
-5.02284e-10
-5.24331e-10
-5.46343e-10
-5.68355e-10
-5.90379e-10
-6.12406e-10
-6.34415e-10
-6.56449e-10
-6.78464e-10
-7.00482e-10
-7.22498e-10
-7.44521e-10
-7.6656e-10
-7.88563e-10
-8.10565e-10
-8.32593e-10
-8.54637e-10
-8.76632e-10
-8.98643e-10
-9.20697e-10
-9.42698e-10
-9.64727e-10
-9.86738e-10
-1.00877e-09
-1.03079e-09
-1.0528e-09
-1.07485e-09
-1.09688e-09
-1.11891e-09
-1.14092e-09
-1.16297e-09
-1.18498e-09
-1.20706e-09
-1.22911e-09
-1.25118e-09
-1.27326e-09
-1.29536e-09
-1.3175e-09
-1.3397e-09
-1.36193e-09
-1.38425e-09
-1.40668e-09
-1.42926e-09
-1.45205e-09
-1.47517e-09
-1.49867e-09
-1.52276e-09
-1.54767e-09
-1.57373e-09
-1.60134e-09
-1.63114e-09
-1.66389e-09
-1.70076e-09
-1.7432e-09
-1.79308e-09
-1.85259e-09
-1.91933e-09
-2.02869e-09
-1.45642e-11
-4.05948e-11
-5.99712e-11
-8.27711e-11
-1.05371e-10
-1.27697e-10
-1.49914e-10
-1.72026e-10
-1.9407e-10
-2.1611e-10
-2.38146e-10
-2.60147e-10
-2.82142e-10
-3.04158e-10
-3.2616e-10
-3.48204e-10
-3.70192e-10
-3.92206e-10
-4.14261e-10
-4.3625e-10
-4.58274e-10
-4.80325e-10
-5.02314e-10
-5.2432e-10
-5.46364e-10
-5.68386e-10
-5.90401e-10
-6.12411e-10
-6.3443e-10
-6.5645e-10
-6.78479e-10
-7.00498e-10
-7.22521e-10
-7.44537e-10
-7.66558e-10
-7.88571e-10
-8.10593e-10
-8.32606e-10
-8.54641e-10
-8.76656e-10
-8.98671e-10
-9.20699e-10
-9.42715e-10
-9.64743e-10
-9.86744e-10
-1.00879e-09
-1.03082e-09
-1.05283e-09
-1.07486e-09
-1.0969e-09
-1.11891e-09
-1.14094e-09
-1.16297e-09
-1.18504e-09
-1.20706e-09
-1.22915e-09
-1.25119e-09
-1.27327e-09
-1.29537e-09
-1.31752e-09
-1.33969e-09
-1.36193e-09
-1.38426e-09
-1.40671e-09
-1.42927e-09
-1.45209e-09
-1.47523e-09
-1.49874e-09
-1.52288e-09
-1.54785e-09
-1.57395e-09
-1.60164e-09
-1.63156e-09
-1.66451e-09
-1.70158e-09
-1.74425e-09
-1.7944e-09
-1.85432e-09
-1.92248e-09
-2.01666e-09
-3.06339e-11
-4.07371e-11
-6.01892e-11
-8.28648e-11
-1.05412e-10
-1.27704e-10
-1.49884e-10
-1.72008e-10
-1.94083e-10
-2.16105e-10
-2.38107e-10
-2.60136e-10
-2.82138e-10
-3.04145e-10
-3.26151e-10
-3.48144e-10
-3.70175e-10
-3.92198e-10
-4.14196e-10
-4.36251e-10
-4.5828e-10
-4.80251e-10
-5.02288e-10
-5.24336e-10
-5.4634e-10
-5.68359e-10
-5.90384e-10
-6.12391e-10
-6.34416e-10
-6.56445e-10
-6.78449e-10
-7.00481e-10
-7.22513e-10
-7.44531e-10
-7.66548e-10
-7.88556e-10
-8.10574e-10
-8.32595e-10
-8.54637e-10
-8.76632e-10
-8.98669e-10
-9.20694e-10
-9.42694e-10
-9.64719e-10
-9.8675e-10
-1.00876e-09
-1.0308e-09
-1.05283e-09
-1.07483e-09
-1.09684e-09
-1.1189e-09
-1.14093e-09
-1.16297e-09
-1.18499e-09
-1.20704e-09
-1.22906e-09
-1.25117e-09
-1.27325e-09
-1.29534e-09
-1.31749e-09
-1.33969e-09
-1.36192e-09
-1.38425e-09
-1.40664e-09
-1.42926e-09
-1.45209e-09
-1.47516e-09
-1.49876e-09
-1.52288e-09
-1.54785e-09
-1.57401e-09
-1.60179e-09
-1.63174e-09
-1.66485e-09
-1.7021e-09
-1.74498e-09
-1.79539e-09
-1.85548e-09
-1.92433e-09
-2.00258e-09
1.29452e-10
-1.88107e-11
-3.80543e-11
-6.02185e-11
-8.29104e-11
-1.05445e-10
-1.27708e-10
-1.49989e-10
-1.72026e-10
-1.94041e-10
-2.16102e-10
-2.38176e-10
-2.60127e-10
-2.8219e-10
-3.04147e-10
-3.26157e-10
-3.48162e-10
-3.70188e-10
-3.92187e-10
-4.14284e-10
-4.36263e-10
-4.58256e-10
-4.80337e-10
-5.02301e-10
-5.2428e-10
-5.46342e-10
-5.68366e-10
-5.90406e-10
-6.12418e-10
-6.3442e-10
-6.5647e-10
-6.785e-10
-7.00484e-10
-7.22478e-10
-7.4452e-10
-7.66586e-10
-7.88551e-10
-8.10593e-10
-8.32596e-10
-8.54607e-10
-8.76634e-10
-8.9867e-10
-9.20684e-10
-9.42694e-10
-9.64772e-10
-9.86708e-10
-1.00879e-09
-1.03081e-09
-1.05276e-09
-1.07487e-09
-1.09693e-09
-1.11889e-09
-1.14091e-09
-1.16292e-09
-1.18502e-09
-1.20704e-09
-1.22919e-09
-1.25118e-09
-1.27328e-09
-1.29538e-09
-1.31746e-09
-1.33967e-09
-1.3619e-09
-1.3842e-09
-1.40671e-09
-1.42925e-09
-1.45204e-09
-1.47525e-09
-1.49871e-09
-1.52291e-09
-1.5479e-09
-1.57409e-09
-1.60188e-09
-1.63199e-09
-1.6651e-09
-1.70249e-09
-1.74553e-09
-1.79615e-09
-1.85657e-09
-1.92875e-09
-2.01325e-09
-2.11623e-09
1.17172e-10
-2.93572e-11
-3.9222e-11
-6.02584e-11
-8.29481e-11
-1.05462e-10
-1.27725e-10
-1.49871e-10
-1.72052e-10
-1.94098e-10
-2.16098e-10
-2.38141e-10
-2.60126e-10
-2.82093e-10
-3.04175e-10
-3.26155e-10
-3.48227e-10
-3.70148e-10
-3.92231e-10
-4.14168e-10
-4.36195e-10
-4.58234e-10
-4.80248e-10
-5.02298e-10
-5.24372e-10
-5.46345e-10
-5.6838e-10
-5.90374e-10
-6.12385e-10
-6.34417e-10
-6.56378e-10
-6.78463e-10
-7.00481e-10
-7.22505e-10
-7.4455e-10
-7.66529e-10
-7.88561e-10
-8.10572e-10
-8.32583e-10
-8.5461e-10
-8.76636e-10
-8.98662e-10
-9.20673e-10
-9.4269e-10
-9.64717e-10
-9.8675e-10
-1.00878e-09
-1.03072e-09
-1.05287e-09
-1.07482e-09
-1.09681e-09
-1.11891e-09
-1.14096e-09
-1.16299e-09
-1.18502e-09
-1.20702e-09
-1.22903e-09
-1.25116e-09
-1.27317e-09
-1.29531e-09
-1.31756e-09
-1.33964e-09
-1.36191e-09
-1.38424e-09
-1.40662e-09
-1.42919e-09
-1.45208e-09
-1.4751e-09
-1.49874e-09
-1.5229e-09
-1.54789e-09
-1.57407e-09
-1.60195e-09
-1.63197e-09
-1.66525e-09
-1.70273e-09
-1.74586e-09
-1.79662e-09
-1.85724e-09
-1.9286e-09
-2.00586e-09
-2.12759e-09
-2.31381e-09
1.11993e-10
-1.85533e-11
-3.73834e-11
-6.01732e-11
-8.29745e-11
-1.05426e-10
-1.27734e-10
-1.50017e-10
-1.72015e-10
-1.94071e-10
-2.161e-10
-2.38132e-10
-2.6016e-10
-2.82173e-10
-3.04112e-10
-3.26192e-10
-3.4807e-10
-3.70228e-10
-3.92162e-10
-4.14245e-10
-4.36289e-10
-4.58288e-10
-4.80311e-10
-5.02298e-10
-5.24246e-10
-5.46363e-10
-5.68319e-10
-5.90372e-10
-6.12415e-10
-6.34399e-10
-6.56465e-10
-6.78471e-10
-7.00506e-10
-7.22505e-10
-7.44504e-10
-7.66538e-10
-7.88534e-10
-8.10565e-10
-8.3259e-10
-8.54609e-10
-8.76621e-10
-8.98663e-10
-9.20674e-10
-9.42698e-10
-9.64717e-10
-9.86735e-10
-1.00876e-09
-1.03082e-09
-1.05274e-09
-1.07486e-09
-1.0969e-09
-1.11891e-09
-1.14086e-09
-1.16292e-09
-1.18498e-09
-1.20704e-09
-1.22911e-09
-1.25116e-09
-1.27325e-09
-1.29537e-09
-1.3174e-09
-1.33969e-09
-1.36182e-09
-1.38416e-09
-1.40662e-09
-1.42922e-09
-1.452e-09
-1.47515e-09
-1.49867e-09
-1.52286e-09
-1.54785e-09
-1.57402e-09
-1.6019e-09
-1.63202e-09
-1.66521e-09
-1.70275e-09
-1.74595e-09
-1.79679e-09
-1.85757e-09
-1.93085e-09
-2.01635e-09
-2.13406e-09
-2.30863e-09
1.07024e-10
-2.4884e-11
-3.8211e-11
-6.02325e-11
-8.2953e-11
-1.05495e-10
-1.27734e-10
-1.49904e-10
-1.72052e-10
-1.94031e-10
-2.16181e-10
-2.38133e-10
-2.60061e-10
-2.82171e-10
-3.0418e-10
-3.26097e-10
-3.48206e-10
-3.70162e-10
-3.92257e-10
-4.14233e-10
-4.3619e-10
-4.58213e-10
-4.80228e-10
-5.02297e-10
-5.24338e-10
-5.46354e-10
-5.68382e-10
-5.90374e-10
-6.12402e-10
-6.34427e-10
-6.56415e-10
-6.78446e-10
-7.00403e-10
-7.22492e-10
-7.44518e-10
-7.66554e-10
-7.88537e-10
-8.10563e-10
-8.32586e-10
-8.5459e-10
-8.76623e-10
-8.98631e-10
-9.20671e-10
-9.4267e-10
-9.64715e-10
-9.86721e-10
-1.00876e-09
-1.03074e-09
-1.05287e-09
-1.07486e-09
-1.09685e-09
-1.11883e-09
-1.14092e-09
-1.16296e-09
-1.18501e-09
-1.207e-09
-1.22908e-09
-1.25118e-09
-1.27319e-09
-1.29527e-09
-1.31752e-09
-1.33959e-09
-1.36189e-09
-1.38416e-09
-1.40659e-09
-1.42913e-09
-1.45199e-09
-1.47507e-09
-1.49863e-09
-1.52278e-09
-1.54781e-09
-1.5739e-09
-1.60178e-09
-1.63185e-09
-1.66513e-09
-1.70269e-09
-1.7458e-09
-1.79663e-09
-1.85744e-09
-1.93008e-09
-2.01095e-09
-2.13488e-09
-2.30742e-09
1.04789e-10
-2.48604e-11
-3.82053e-11
-6.02167e-11
-8.29559e-11
-1.0544e-10
-1.27758e-10
-1.49941e-10
-1.72041e-10
-1.94135e-10
-2.16049e-10
-2.3814e-10
-2.60204e-10
-2.8208e-10
-3.04141e-10
-3.26178e-10
-3.48062e-10
-3.70166e-10
-3.92169e-10
-4.14191e-10
-4.36288e-10
-4.58294e-10
-4.80327e-10
-5.02286e-10
-5.24294e-10
-5.46284e-10
-5.68328e-10
-5.90381e-10
-6.1238e-10
-6.34383e-10
-6.56448e-10
-6.78452e-10
-7.00516e-10
-7.22508e-10
-7.44447e-10
-7.66542e-10
-7.8854e-10
-8.10564e-10
-8.32603e-10
-8.54606e-10
-8.76628e-10
-8.98656e-10
-9.20668e-10
-9.42702e-10
-9.64715e-10
-9.86713e-10
-1.00878e-09
-1.0308e-09
-1.05272e-09
-1.0748e-09
-1.09688e-09
-1.1189e-09
-1.14089e-09
-1.16292e-09
-1.18496e-09
-1.20705e-09
-1.22907e-09
-1.2511e-09
-1.27323e-09
-1.29533e-09
-1.31739e-09
-1.33962e-09
-1.36179e-09
-1.38416e-09
-1.40658e-09
-1.42913e-09
-1.45191e-09
-1.47501e-09
-1.49852e-09
-1.52272e-09
-1.54762e-09
-1.57383e-09
-1.60156e-09
-1.63168e-09
-1.66484e-09
-1.7022e-09
-1.74542e-09
-1.79617e-09
-1.8569e-09
-1.92935e-09
-2.01023e-09
-2.13434e-09
-2.3063e-09
1.05369e-10
-1.89179e-11
-3.74625e-11
-6.02005e-11
-8.29572e-11
-1.05479e-10
-1.27702e-10
-1.49973e-10
-1.72028e-10
-1.93998e-10
-2.16184e-10
-2.38141e-10
-2.60043e-10
-2.82222e-10
-3.04132e-10
-3.26172e-10
-3.4814e-10
-3.70208e-10
-3.92261e-10
-4.14254e-10
-4.36202e-10
-4.58241e-10
-4.80239e-10
-5.02294e-10
-5.24279e-10
-5.46346e-10
-5.68369e-10
-5.90359e-10
-6.12437e-10
-6.34444e-10
-6.56429e-10
-6.78444e-10
-7.00436e-10
-7.22439e-10
-7.44604e-10
-7.66528e-10
-7.88549e-10
-8.10564e-10
-8.32602e-10
-8.54578e-10
-8.76637e-10
-8.98647e-10
-9.20669e-10
-9.42697e-10
-9.64717e-10
-9.86742e-10
-1.00874e-09
-1.03078e-09
-1.05283e-09
-1.07489e-09
-1.09685e-09
-1.11887e-09
-1.14088e-09
-1.16295e-09
-1.18499e-09
-1.20701e-09
-1.22907e-09
-1.25114e-09
-1.27319e-09
-1.29529e-09
-1.31748e-09
-1.33959e-09
-1.36185e-09
-1.38409e-09
-1.40648e-09
-1.42907e-09
-1.45188e-09
-1.47496e-09
-1.4985e-09
-1.52254e-09
-1.54752e-09
-1.57353e-09
-1.60135e-09
-1.63134e-09
-1.6644e-09
-1.70177e-09
-1.74478e-09
-1.79539e-09
-1.85594e-09
-1.92898e-09
-2.01475e-09
-2.13259e-09
-2.30612e-09
1.09088e-10
-2.91682e-11
-3.9213e-11
-6.0276e-11
-8.29439e-11
-1.05422e-10
-1.2778e-10
-1.49854e-10
-1.72043e-10
-1.941e-10
-2.16048e-10
-2.38152e-10
-2.6021e-10
-2.82022e-10
-3.04161e-10
-3.26133e-10
-3.48148e-10
-3.70109e-10
-3.92164e-10
-4.14187e-10
-4.36271e-10
-4.58246e-10
-4.80313e-10
-5.02288e-10
-5.24313e-10
-5.46337e-10
-5.68315e-10
-5.90381e-10
-6.12343e-10
-6.34387e-10
-6.56442e-10
-6.78435e-10
-7.00467e-10
-7.22546e-10
-7.4443e-10
-7.66517e-10
-7.88576e-10
-8.10563e-10
-8.32611e-10
-8.54605e-10
-8.76637e-10
-8.98648e-10
-9.20675e-10
-9.427e-10
-9.64724e-10
-9.8674e-10
-1.00877e-09
-1.03078e-09
-1.05279e-09
-1.07477e-09
-1.09688e-09
-1.11887e-09
-1.14084e-09
-1.16293e-09
-1.18496e-09
-1.20703e-09
-1.22905e-09
-1.25111e-09
-1.2732e-09
-1.29527e-09
-1.31736e-09
-1.33954e-09
-1.36176e-09
-1.3841e-09
-1.4065e-09
-1.42903e-09
-1.45179e-09
-1.47483e-09
-1.49835e-09
-1.52241e-09
-1.54736e-09
-1.57342e-09
-1.60096e-09
-1.63094e-09
-1.66397e-09
-1.70101e-09
-1.74389e-09
-1.79431e-09
-1.85453e-09
-1.92576e-09
-2.00217e-09
-2.12778e-09
-2.30708e-09
1.21852e-10
-1.90247e-11
-3.81383e-11
-6.02111e-11
-8.29138e-11
-1.05445e-10
-1.27727e-10
-1.49908e-10
-1.72038e-10
-1.94058e-10
-2.16156e-10
-2.38121e-10
-2.60066e-10
-2.82223e-10
-3.04131e-10
-3.26184e-10
-3.48136e-10
-3.70228e-10
-3.92261e-10
-4.14263e-10
-4.36222e-10
-4.58263e-10
-4.80259e-10
-5.02291e-10
-5.24315e-10
-5.4632e-10
-5.68405e-10
-5.90367e-10
-6.12432e-10
-6.34425e-10
-6.56433e-10
-6.78455e-10
-7.00526e-10
-7.22419e-10
-7.44577e-10
-7.66577e-10
-7.88524e-10
-8.10581e-10
-8.32619e-10
-8.54604e-10
-8.76654e-10
-8.9865e-10
-9.20709e-10
-9.42699e-10
-9.64757e-10
-9.86732e-10
-1.00878e-09
-1.03081e-09
-1.05279e-09
-1.07486e-09
-1.09683e-09
-1.1189e-09
-1.14097e-09
-1.16293e-09
-1.18496e-09
-1.207e-09
-1.22909e-09
-1.25111e-09
-1.27319e-09
-1.29529e-09
-1.31745e-09
-1.33956e-09
-1.36179e-09
-1.38404e-09
-1.40648e-09
-1.42897e-09
-1.45171e-09
-1.47481e-09
-1.4982e-09
-1.52232e-09
-1.54707e-09
-1.57308e-09
-1.60072e-09
-1.63045e-09
-1.66329e-09
-1.70023e-09
-1.74281e-09
-1.79293e-09
-1.8528e-09
-1.92443e-09
-2.00873e-09
-2.1171e-09
-2.31189e-09
1.42899e-10
-3.07538e-11
-4.07229e-11
-6.02086e-11
-8.28556e-11
-1.05393e-10
-1.27711e-10
-1.4989e-10
-1.72007e-10
-1.94063e-10
-2.16073e-10
-2.38136e-10
-2.60144e-10
-2.82054e-10
-3.04138e-10
-3.26133e-10
-3.48142e-10
-3.70154e-10
-3.92159e-10
-4.14185e-10
-4.36233e-10
-4.58248e-10
-4.80271e-10
-5.02293e-10
-5.24306e-10
-5.46345e-10
-5.68318e-10
-5.90366e-10
-6.12386e-10
-6.34419e-10
-6.56424e-10
-6.78437e-10
-7.00441e-10
-7.22526e-10
-7.44479e-10
-7.66502e-10
-7.88581e-10
-8.10578e-10
-8.32597e-10
-8.54625e-10
-8.76646e-10
-8.98651e-10
-9.20692e-10
-9.42701e-10
-9.64717e-10
-9.86749e-10
-1.00877e-09
-1.03076e-09
-1.0528e-09
-1.07481e-09
-1.09685e-09
-1.11886e-09
-1.14085e-09
-1.16293e-09
-1.18496e-09
-1.20701e-09
-1.22901e-09
-1.2511e-09
-1.27318e-09
-1.29526e-09
-1.31736e-09
-1.33953e-09
-1.36172e-09
-1.38401e-09
-1.40638e-09
-1.42891e-09
-1.45164e-09
-1.47465e-09
-1.49808e-09
-1.52203e-09
-1.54686e-09
-1.57279e-09
-1.60023e-09
-1.62987e-09
-1.6625e-09
-1.69924e-09
-1.74152e-09
-1.79129e-09
-1.85068e-09
-1.91885e-09
-1.9965e-09
-2.10395e-09
-1.46352e-11
-4.06033e-11
-5.99718e-11
-8.27595e-11
-1.05372e-10
-1.27701e-10
-1.49887e-10
-1.72006e-10
-1.94068e-10
-2.16107e-10
-2.38119e-10
-2.60113e-10
-2.82179e-10
-3.04131e-10
-3.26159e-10
-3.48166e-10
-3.7018e-10
-3.92216e-10
-4.14252e-10
-4.36247e-10
-4.58266e-10
-4.80287e-10
-5.0229e-10
-5.24332e-10
-5.46329e-10
-5.6839e-10
-5.90381e-10
-6.12393e-10
-6.34425e-10
-6.56455e-10
-6.78449e-10
-7.00495e-10
-7.22472e-10
-7.44536e-10
-7.66565e-10
-7.88552e-10
-8.10586e-10
-8.32624e-10
-8.54626e-10
-8.76654e-10
-8.98683e-10
-9.20706e-10
-9.42711e-10
-9.64749e-10
-9.86748e-10
-1.00877e-09
-1.03081e-09
-1.0528e-09
-1.07483e-09
-1.09685e-09
-1.11889e-09
-1.14095e-09
-1.16293e-09
-1.18496e-09
-1.207e-09
-1.22907e-09
-1.25112e-09
-1.27317e-09
-1.29526e-09
-1.31737e-09
-1.33952e-09
-1.36171e-09
-1.38398e-09
-1.40637e-09
-1.42887e-09
-1.45156e-09
-1.47457e-09
-1.49793e-09
-1.52191e-09
-1.54661e-09
-1.57244e-09
-1.59978e-09
-1.62932e-09
-1.66174e-09
-1.69816e-09
-1.7401e-09
-1.78946e-09
-1.84854e-09
-1.91589e-09
-2.00924e-09
-1.41845e-13
-4.01011e-11
-5.961e-11
-8.25777e-11
-1.0526e-10
-1.27628e-10
-1.49843e-10
-1.71971e-10
-1.94039e-10
-2.16077e-10
-2.38112e-10
-2.60123e-10
-2.82079e-10
-3.0412e-10
-3.26157e-10
-3.48126e-10
-3.70168e-10
-3.92182e-10
-4.14196e-10
-4.36222e-10
-4.5825e-10
-4.80258e-10
-5.0231e-10
-5.24304e-10
-5.46327e-10
-5.68339e-10
-5.90359e-10
-6.12397e-10
-6.34401e-10
-6.56391e-10
-6.78453e-10
-7.00454e-10
-7.22478e-10
-7.4452e-10
-7.66523e-10
-7.88547e-10
-8.10589e-10
-8.32582e-10
-8.54625e-10
-8.7664e-10
-8.98649e-10
-9.20693e-10
-9.42683e-10
-9.64716e-10
-9.86741e-10
-1.00876e-09
-1.03077e-09
-1.0528e-09
-1.07482e-09
-1.09685e-09
-1.11886e-09
-1.14087e-09
-1.16293e-09
-1.18495e-09
-1.207e-09
-1.22902e-09
-1.25107e-09
-1.27315e-09
-1.29523e-09
-1.31736e-09
-1.33947e-09
-1.36167e-09
-1.38393e-09
-1.4063e-09
-1.42877e-09
-1.45144e-09
-1.47441e-09
-1.4978e-09
-1.52164e-09
-1.54629e-09
-1.57195e-09
-1.59922e-09
-1.62847e-09
-1.66057e-09
-1.69676e-09
-1.73838e-09
-1.78733e-09
-1.84586e-09
-1.9116e-09
-2.02017e-09
-1.5196e-11
-3.23102e-11
-5.75423e-11
-8.17675e-11
-1.04843e-10
-1.27411e-10
-1.49719e-10
-1.71864e-10
-1.93983e-10
-2.16046e-10
-2.38079e-10
-2.60108e-10
-2.82123e-10
-3.04145e-10
-3.26137e-10
-3.48157e-10
-3.70185e-10
-3.92206e-10
-4.14226e-10
-4.3624e-10
-4.58277e-10
-4.80286e-10
-5.02275e-10
-5.24327e-10
-5.46341e-10
-5.68374e-10
-5.90393e-10
-6.12408e-10
-6.34416e-10
-6.56457e-10
-6.78463e-10
-7.00482e-10
-7.22489e-10
-7.44524e-10
-7.66549e-10
-7.88562e-10
-8.10581e-10
-8.32588e-10
-8.54617e-10
-8.76655e-10
-8.98657e-10
-9.20668e-10
-9.4271e-10
-9.64705e-10
-9.86762e-10
-1.00877e-09
-1.0308e-09
-1.05283e-09
-1.07485e-09
-1.09688e-09
-1.11891e-09
-1.14094e-09
-1.16297e-09
-1.18501e-09
-1.20707e-09
-1.22913e-09
-1.25121e-09
-1.27325e-09
-1.29539e-09
-1.31752e-09
-1.33973e-09
-1.36194e-09
-1.38423e-09
-1.40664e-09
-1.42921e-09
-1.45194e-09
-1.47495e-09
-1.49835e-09
-1.52228e-09
-1.54691e-09
-1.57258e-09
-1.59957e-09
-1.62858e-09
-1.66025e-09
-1.69564e-09
-1.73615e-09
-1.78387e-09
-1.84173e-09
-1.9124e-09
-1.99293e-09
1.45741e-10
-2.41717e-11
-3.38061e-11
-5.81433e-11
-8.20254e-11
-1.04998e-10
-1.27502e-10
-1.49781e-10
-1.71912e-10
-1.94009e-10
-2.16079e-10
-2.3809e-10
-2.6011e-10
-2.82142e-10
-3.04129e-10
-3.26168e-10
-3.48184e-10
-3.70192e-10
-3.92205e-10
-4.1424e-10
-4.3626e-10
-4.58259e-10
-4.80287e-10
-5.02323e-10
-5.24346e-10
-5.46358e-10
-5.68372e-10
-5.90395e-10
-6.12417e-10
-6.34479e-10
-6.56457e-10
-6.78471e-10
-7.00499e-10
-7.22518e-10
-7.44541e-10
-7.66542e-10
-7.88571e-10
-8.10607e-10
-8.32609e-10
-8.54625e-10
-8.76661e-10
-8.98673e-10
-9.20689e-10
-9.42708e-10
-9.64733e-10
-9.86769e-10
-1.0088e-09
-1.0308e-09
-1.05283e-09
-1.07485e-09
-1.09691e-09
-1.11892e-09
-1.14095e-09
-1.16297e-09
-1.18504e-09
-1.20708e-09
-1.22914e-09
-1.25121e-09
-1.27332e-09
-1.29541e-09
-1.31753e-09
-1.33973e-09
-1.36194e-09
-1.38426e-09
-1.40669e-09
-1.42924e-09
-1.45202e-09
-1.47505e-09
-1.49849e-09
-1.52246e-09
-1.54719e-09
-1.57293e-09
-1.60011e-09
-1.6294e-09
-1.66129e-09
-1.69703e-09
-1.73799e-09
-1.78621e-09
-1.84452e-09
-1.91558e-09
-1.98895e-09
-2.06964e-09
1.31299e-10
-1.01298e-11
-3.44635e-11
-5.85741e-11
-8.22044e-11
-1.05075e-10
-1.27542e-10
-1.49774e-10
-1.71918e-10
-1.94012e-10
-2.16048e-10
-2.38132e-10
-2.60118e-10
-2.82092e-10
-3.04171e-10
-3.26149e-10
-3.4812e-10
-3.70187e-10
-3.92215e-10
-4.14228e-10
-4.36252e-10
-4.58279e-10
-4.80279e-10
-5.02292e-10
-5.24332e-10
-5.46341e-10
-5.68375e-10
-5.90388e-10
-6.12403e-10
-6.34379e-10
-6.5646e-10
-6.78472e-10
-7.00438e-10
-7.2251e-10
-7.44506e-10
-7.66579e-10
-7.88578e-10
-8.10533e-10
-8.32604e-10
-8.54627e-10
-8.76643e-10
-8.98647e-10
-9.20692e-10
-9.4272e-10
-9.64728e-10
-9.86741e-10
-1.00877e-09
-1.03081e-09
-1.05283e-09
-1.07488e-09
-1.09685e-09
-1.11892e-09
-1.14094e-09
-1.16298e-09
-1.18502e-09
-1.20705e-09
-1.22915e-09
-1.2512e-09
-1.27323e-09
-1.29538e-09
-1.3175e-09
-1.33973e-09
-1.36196e-09
-1.38426e-09
-1.40665e-09
-1.42927e-09
-1.452e-09
-1.47509e-09
-1.49855e-09
-1.52254e-09
-1.54734e-09
-1.5732e-09
-1.60056e-09
-1.62994e-09
-1.66217e-09
-1.69828e-09
-1.73971e-09
-1.78848e-09
-1.84725e-09
-1.91886e-09
-2.00736e-09
-2.07454e-09
-2.28586e-09
1.50811e-10
-1.37329e-11
-3.54133e-11
-5.9004e-11
-8.23812e-11
-1.05151e-10
-1.27591e-10
-1.49826e-10
-1.71938e-10
-1.94025e-10
-2.16068e-10
-2.38105e-10
-2.60112e-10
-2.8211e-10
-3.04123e-10
-3.26179e-10
-3.48197e-10
-3.70182e-10
-3.92219e-10
-4.14244e-10
-4.36261e-10
-4.58212e-10
-4.80272e-10
-5.02353e-10
-5.24349e-10
-5.46351e-10
-5.6837e-10
-5.90371e-10
-6.12427e-10
-6.34488e-10
-6.56425e-10
-6.78475e-10
-7.00495e-10
-7.22521e-10
-7.44529e-10
-7.66511e-10
-7.88532e-10
-8.10628e-10
-8.3262e-10
-8.54577e-10
-8.76653e-10
-8.98671e-10
-9.20669e-10
-9.42719e-10
-9.64686e-10
-9.86778e-10
-1.00878e-09
-1.03081e-09
-1.05283e-09
-1.07482e-09
-1.09692e-09
-1.11891e-09
-1.14095e-09
-1.16295e-09
-1.18502e-09
-1.20704e-09
-1.22913e-09
-1.25119e-09
-1.27332e-09
-1.29543e-09
-1.31754e-09
-1.33967e-09
-1.36193e-09
-1.38428e-09
-1.40665e-09
-1.42931e-09
-1.45205e-09
-1.47511e-09
-1.49862e-09
-1.52264e-09
-1.54755e-09
-1.57342e-09
-1.60086e-09
-1.63051e-09
-1.66297e-09
-1.69939e-09
-1.74127e-09
-1.79051e-09
-1.84971e-09
-1.92147e-09
-2.00716e-09
-2.02926e-09
-2.2938e-09
1.13096e-10
-9.43866e-12
-3.59378e-11
-5.93825e-11
-8.25662e-11
-1.05245e-10
-1.27641e-10
-1.49881e-10
-1.71961e-10
-1.94063e-10
-2.161e-10
-2.38143e-10
-2.60115e-10
-2.8216e-10
-3.04176e-10
-3.26162e-10
-3.48112e-10
-3.70189e-10
-3.92228e-10
-4.1424e-10
-4.36246e-10
-4.5831e-10
-4.80288e-10
-5.02291e-10
-5.24356e-10
-5.46348e-10
-5.68377e-10
-5.90381e-10
-6.12428e-10
-6.34417e-10
-6.56471e-10
-6.78465e-10
-7.00503e-10
-7.22497e-10
-7.44516e-10
-7.66567e-10
-7.88605e-10
-8.10561e-10
-8.32617e-10
-8.54647e-10
-8.76654e-10
-8.98637e-10
-9.20705e-10
-9.42719e-10
-9.64732e-10
-9.86778e-10
-1.00878e-09
-1.03078e-09
-1.05283e-09
-1.07486e-09
-1.09688e-09
-1.11895e-09
-1.14091e-09
-1.16298e-09
-1.18499e-09
-1.20709e-09
-1.22913e-09
-1.25119e-09
-1.27326e-09
-1.2954e-09
-1.31749e-09
-1.33973e-09
-1.36195e-09
-1.38424e-09
-1.40673e-09
-1.42925e-09
-1.45202e-09
-1.47519e-09
-1.49864e-09
-1.52274e-09
-1.54761e-09
-1.57366e-09
-1.60121e-09
-1.63094e-09
-1.66362e-09
-1.70037e-09
-1.74261e-09
-1.79232e-09
-1.8519e-09
-1.92424e-09
-2.01469e-09
-2.0703e-09
-2.28022e-09
9.01204e-11
-1.36753e-11
-3.75477e-11
-5.99014e-11
-8.28003e-11
-1.05382e-10
-1.27776e-10
-1.49922e-10
-1.72058e-10
-1.94093e-10
-2.16128e-10
-2.38209e-10
-2.6018e-10
-2.82103e-10
-3.04202e-10
-3.26163e-10
-3.48245e-10
-3.70219e-10
-3.9224e-10
-4.14245e-10
-4.36303e-10
-4.582e-10
-4.80335e-10
-5.02388e-10
-5.2432e-10
-5.46353e-10
-5.68401e-10
-5.9038e-10
-6.12454e-10
-6.34459e-10
-6.56481e-10
-6.78469e-10
-7.00526e-10
-7.2255e-10
-7.44534e-10
-7.66495e-10
-7.8861e-10
-8.10618e-10
-8.32655e-10
-8.5462e-10
-8.76709e-10
-8.98706e-10
-9.20683e-10
-9.4276e-10
-9.64744e-10
-9.86797e-10
-1.0088e-09
-1.03083e-09
-1.05282e-09
-1.07488e-09
-1.09686e-09
-1.11891e-09
-1.14096e-09
-1.16298e-09
-1.18507e-09
-1.20704e-09
-1.22919e-09
-1.25122e-09
-1.27329e-09
-1.2954e-09
-1.31754e-09
-1.33969e-09
-1.36195e-09
-1.38425e-09
-1.40666e-09
-1.42932e-09
-1.45209e-09
-1.47523e-09
-1.49871e-09
-1.52283e-09
-1.54779e-09
-1.5738e-09
-1.60151e-09
-1.63137e-09
-1.66424e-09
-1.7012e-09
-1.74378e-09
-1.79379e-09
-1.8536e-09
-1.92531e-09
-2.01493e-09
-2.11629e-09
-2.27499e-09
8.00708e-11
-1.71477e-11
-3.84592e-11
-6.01971e-11
-8.2961e-11
-1.05461e-10
-1.27811e-10
-1.49943e-10
-1.72054e-10
-1.94113e-10
-2.16149e-10
-2.38136e-10
-2.60157e-10
-2.82183e-10
-3.04164e-10
-3.26193e-10
-3.48121e-10
-3.70206e-10
-3.92241e-10
-4.14209e-10
-4.36209e-10
-4.58303e-10
-4.80242e-10
-5.02295e-10
-5.24402e-10
-5.46331e-10
-5.68376e-10
-5.90405e-10
-6.12382e-10
-6.34454e-10
-6.56468e-10
-6.78465e-10
-7.00485e-10
-7.22495e-10
-7.44526e-10
-7.66563e-10
-7.88591e-10
-8.10606e-10
-8.32647e-10
-8.54619e-10
-8.76671e-10
-8.98693e-10
-9.20701e-10
-9.42747e-10
-9.64674e-10
-9.86777e-10
-1.00878e-09
-1.03082e-09
-1.05289e-09
-1.07484e-09
-1.09687e-09
-1.11894e-09
-1.14096e-09
-1.16299e-09
-1.18494e-09
-1.2071e-09
-1.22904e-09
-1.25115e-09
-1.27327e-09
-1.29538e-09
-1.31752e-09
-1.33969e-09
-1.36194e-09
-1.38424e-09
-1.40665e-09
-1.42924e-09
-1.45211e-09
-1.47512e-09
-1.49873e-09
-1.52286e-09
-1.54782e-09
-1.57394e-09
-1.6017e-09
-1.63164e-09
-1.66465e-09
-1.7018e-09
-1.74458e-09
-1.79489e-09
-1.85485e-09
-1.92626e-09
-2.0138e-09
-2.13123e-09
-2.27201e-09
5.25019e-11
-1.56366e-11
-3.77344e-11
-6.03287e-11
-8.30248e-11
-1.05529e-10
-1.27835e-10
-1.49976e-10
-1.72071e-10
-1.94131e-10
-2.16159e-10
-2.38167e-10
-2.60213e-10
-2.82183e-10
-3.0414e-10
-3.26211e-10
-3.48192e-10
-3.70257e-10
-3.92237e-10
-4.14221e-10
-4.36257e-10
-4.58288e-10
-4.80357e-10
-5.02351e-10
-5.24258e-10
-5.46366e-10
-5.68391e-10
-5.9038e-10
-6.12478e-10
-6.34442e-10
-6.56507e-10
-6.78442e-10
-7.00537e-10
-7.22518e-10
-7.44515e-10
-7.66552e-10
-7.88604e-10
-8.10586e-10
-8.32634e-10
-8.54647e-10
-8.76665e-10
-8.98674e-10
-9.20684e-10
-9.42744e-10
-9.64723e-10
-9.86789e-10
-1.00879e-09
-1.03083e-09
-1.0528e-09
-1.07487e-09
-1.09691e-09
-1.11892e-09
-1.14091e-09
-1.16298e-09
-1.185e-09
-1.20709e-09
-1.22918e-09
-1.2512e-09
-1.27331e-09
-1.29538e-09
-1.31747e-09
-1.33969e-09
-1.36195e-09
-1.3842e-09
-1.40664e-09
-1.42933e-09
-1.452e-09
-1.47532e-09
-1.4987e-09
-1.52289e-09
-1.54782e-09
-1.57405e-09
-1.60182e-09
-1.63182e-09
-1.66491e-09
-1.70224e-09
-1.74516e-09
-1.79565e-09
-1.85592e-09
-1.92844e-09
-2.01673e-09
-2.16741e-09
-2.27207e-09
5.0039e-11
-1.91692e-11
-3.87459e-11
-6.04537e-11
-8.30948e-11
-1.05554e-10
-1.27864e-10
-1.49967e-10
-1.72084e-10
-1.94132e-10
-2.16164e-10
-2.38091e-10
-2.60193e-10
-2.82162e-10
-3.04266e-10
-3.26132e-10
-3.48271e-10
-3.70145e-10
-3.92199e-10
-4.14239e-10
-4.36258e-10
-4.58253e-10
-4.80254e-10
-5.02268e-10
-5.24406e-10
-5.46346e-10
-5.68345e-10
-5.90414e-10
-6.12384e-10
-6.34461e-10
-6.56416e-10
-6.78494e-10
-7.00496e-10
-7.22515e-10
-7.44549e-10
-7.66496e-10
-7.88592e-10
-8.10581e-10
-8.32625e-10
-8.54635e-10
-8.7666e-10
-8.98664e-10
-9.20694e-10
-9.42738e-10
-9.64714e-10
-9.8677e-10
-1.00875e-09
-1.03078e-09
-1.05289e-09
-1.07482e-09
-1.09688e-09
-1.11888e-09
-1.14101e-09
-1.16301e-09
-1.18502e-09
-1.20705e-09
-1.22903e-09
-1.2511e-09
-1.27326e-09
-1.29539e-09
-1.31755e-09
-1.33966e-09
-1.36191e-09
-1.38423e-09
-1.40662e-09
-1.42921e-09
-1.45209e-09
-1.47508e-09
-1.49875e-09
-1.5228e-09
-1.54788e-09
-1.57401e-09
-1.60186e-09
-1.63192e-09
-1.66505e-09
-1.70246e-09
-1.7455e-09
-1.7961e-09
-1.8565e-09
-1.92838e-09
-2.01418e-09
-2.16593e-09
-2.27206e-09
4.90261e-11
-1.57866e-11
-3.77349e-11
-6.04475e-11
-8.31475e-11
-1.05574e-10
-1.27849e-10
-1.50046e-10
-1.72063e-10
-1.9415e-10
-2.16101e-10
-2.38214e-10
-2.602e-10
-2.82177e-10
-3.04083e-10
-3.26241e-10
-3.48152e-10
-3.70286e-10
-3.92202e-10
-4.14219e-10
-4.36224e-10
-4.58358e-10
-4.80303e-10
-5.02293e-10
-5.24294e-10
-5.46316e-10
-5.68432e-10
-5.90369e-10
-6.12453e-10
-6.34425e-10
-6.56483e-10
-6.78415e-10
-7.00541e-10
-7.22545e-10
-7.44511e-10
-7.66499e-10
-7.88595e-10
-8.10579e-10
-8.32615e-10
-8.54623e-10
-8.76657e-10
-8.98658e-10
-9.20695e-10
-9.4272e-10
-9.64697e-10
-9.86762e-10
-1.00877e-09
-1.03086e-09
-1.05278e-09
-1.07483e-09
-1.0969e-09
-1.11892e-09
-1.14091e-09
-1.16297e-09
-1.18491e-09
-1.20708e-09
-1.22919e-09
-1.25117e-09
-1.27328e-09
-1.29535e-09
-1.31738e-09
-1.33968e-09
-1.36189e-09
-1.38421e-09
-1.4066e-09
-1.42929e-09
-1.45193e-09
-1.47525e-09
-1.49863e-09
-1.52285e-09
-1.54775e-09
-1.57399e-09
-1.60182e-09
-1.63192e-09
-1.66506e-09
-1.70251e-09
-1.74558e-09
-1.79627e-09
-1.85678e-09
-1.9297e-09
-2.01801e-09
-2.16655e-09
-2.27204e-09
4.8013e-11
-1.75432e-11
-3.83231e-11
-6.05035e-11
-8.31324e-11
-1.05599e-10
-1.27877e-10
-1.49935e-10
-1.72093e-10
-1.94132e-10
-2.16203e-10
-2.38125e-10
-2.60184e-10
-2.82172e-10
-3.04271e-10
-3.26102e-10
-3.48309e-10
-3.70114e-10
-3.92235e-10
-4.14257e-10
-4.3624e-10
-4.58198e-10
-4.80279e-10
-5.02365e-10
-5.24356e-10
-5.46389e-10
-5.68299e-10
-5.90408e-10
-6.12426e-10
-6.34464e-10
-6.56446e-10
-6.78495e-10
-7.00445e-10
-7.22493e-10
-7.44553e-10
-7.66498e-10
-7.88597e-10
-8.1057e-10
-8.32603e-10
-8.54622e-10
-8.76653e-10
-8.98651e-10
-9.2069e-10
-9.42714e-10
-9.64715e-10
-9.86759e-10
-1.00876e-09
-1.03077e-09
-1.05289e-09
-1.07487e-09
-1.0968e-09
-1.1189e-09
-1.141e-09
-1.16298e-09
-1.18507e-09
-1.20704e-09
-1.22898e-09
-1.25112e-09
-1.27324e-09
-1.29535e-09
-1.31755e-09
-1.33957e-09
-1.36187e-09
-1.38417e-09
-1.40658e-09
-1.42917e-09
-1.45206e-09
-1.47505e-09
-1.49865e-09
-1.5227e-09
-1.54773e-09
-1.57389e-09
-1.60179e-09
-1.63172e-09
-1.66495e-09
-1.70238e-09
-1.74545e-09
-1.7961e-09
-1.85661e-09
-1.92913e-09
-2.0161e-09
-2.16575e-09
-2.27255e-09
4.79634e-11
-1.75722e-11
-3.83277e-11
-6.04909e-11
-8.31416e-11
-1.05585e-10
-1.27873e-10
-1.50017e-10
-1.72082e-10
-1.94144e-10
-2.16103e-10
-2.38168e-10
-2.60261e-10
-2.82155e-10
-3.04083e-10
-3.26175e-10
-3.48191e-10
-3.70264e-10
-3.92129e-10
-4.14187e-10
-4.36277e-10
-4.58376e-10
-4.80325e-10
-5.02254e-10
-5.24348e-10
-5.46287e-10
-5.68425e-10
-5.90397e-10
-6.12382e-10
-6.34415e-10
-6.56423e-10
-6.78471e-10
-7.00529e-10
-7.22474e-10
-7.44525e-10
-7.66547e-10
-7.8855e-10
-8.10583e-10
-8.3259e-10
-8.54637e-10
-8.76638e-10
-8.98681e-10
-9.20687e-10
-9.42711e-10
-9.64712e-10
-9.86766e-10
-1.00876e-09
-1.0308e-09
-1.05281e-09
-1.07477e-09
-1.09689e-09
-1.11891e-09
-1.14091e-09
-1.16296e-09
-1.1849e-09
-1.20704e-09
-1.2292e-09
-1.25115e-09
-1.27323e-09
-1.29532e-09
-1.31736e-09
-1.33965e-09
-1.36185e-09
-1.38416e-09
-1.40657e-09
-1.4292e-09
-1.45185e-09
-1.47507e-09
-1.49848e-09
-1.52269e-09
-1.54761e-09
-1.57373e-09
-1.60152e-09
-1.63156e-09
-1.66468e-09
-1.70201e-09
-1.745e-09
-1.79564e-09
-1.85606e-09
-1.92847e-09
-2.01547e-09
-2.16503e-09
-2.27185e-09
4.89983e-11
-1.59961e-11
-3.78216e-11
-6.04622e-11
-8.31169e-11
-1.05589e-10
-1.27837e-10
-1.50009e-10
-1.72046e-10
-1.94128e-10
-2.16175e-10
-2.3816e-10
-2.6018e-10
-2.82202e-10
-3.04192e-10
-3.26129e-10
-3.48303e-10
-3.70191e-10
-3.92184e-10
-4.14267e-10
-4.36213e-10
-4.58244e-10
-4.8023e-10
-5.02361e-10
-5.24362e-10
-5.46395e-10
-5.68337e-10
-5.90397e-10
-6.12377e-10
-6.34453e-10
-6.56519e-10
-6.78479e-10
-7.00469e-10
-7.22478e-10
-7.44513e-10
-7.66547e-10
-7.88616e-10
-8.1058e-10
-8.32582e-10
-8.54627e-10
-8.76645e-10
-8.98685e-10
-9.2069e-10
-9.42707e-10
-9.64709e-10
-9.86768e-10
-1.00876e-09
-1.03078e-09
-1.05286e-09
-1.07489e-09
-1.09683e-09
-1.11889e-09
-1.141e-09
-1.16297e-09
-1.18505e-09
-1.20702e-09
-1.22895e-09
-1.25118e-09
-1.27322e-09
-1.29534e-09
-1.31749e-09
-1.33958e-09
-1.36184e-09
-1.38406e-09
-1.40652e-09
-1.42905e-09
-1.45194e-09
-1.47493e-09
-1.49847e-09
-1.52251e-09
-1.54747e-09
-1.57356e-09
-1.60129e-09
-1.63118e-09
-1.66427e-09
-1.70148e-09
-1.74449e-09
-1.79485e-09
-1.85511e-09
-1.92794e-09
-2.01616e-09
-2.16431e-09
-2.27037e-09
4.98708e-11
-1.91369e-11
-3.871e-11
-6.04579e-11
-8.30784e-11
-1.0555e-10
-1.27848e-10
-1.4998e-10
-1.72068e-10
-1.94118e-10
-2.16173e-10
-2.38131e-10
-2.60205e-10
-2.82144e-10
-3.04138e-10
-3.26141e-10
-3.48184e-10
-3.70204e-10
-3.92161e-10
-4.14196e-10
-4.36269e-10
-4.58311e-10
-4.80328e-10
-5.02276e-10
-5.24288e-10
-5.46314e-10
-5.68395e-10
-5.90403e-10
-6.12439e-10
-6.34403e-10
-6.56324e-10
-6.78494e-10
-7.00474e-10
-7.22556e-10
-7.44507e-10
-7.66558e-10
-7.88563e-10
-8.10587e-10
-8.32577e-10
-8.54655e-10
-8.76641e-10