/*--------------------------------*- C++ -*----------------------------------*\
| =========                 |                                                 |
| \\      /  F ield         | OpenFOAM: The Open Source CFD Toolbox           |
|  \\    /   O peration     | Version:  v1906                                 |
|   \\  /    A nd           | Web:      www.OpenFOAM.com                      |
|    \\/     M anipulation  |                                                 |
\*---------------------------------------------------------------------------*/
FoamFile
{
    version     2.0;
    format      ascii;
    class       volScalarField;
    location    "11.5";
    object      p;
}
// * * * * * * * * * * * * * * * * * * * * * * * * * * * * * * * * * * * * * //

dimensions      [0 2 -2 0 0 0 0];


internalField   nonuniform List<scalar> 
243374
(
-2.1326e-14
-4.00317e-11
-5.94931e-11
-8.24808e-11
-1.05165e-10
-1.27513e-10
-1.49763e-10
-1.71866e-10
-1.93949e-10
-2.15984e-10
-2.38004e-10
-2.60026e-10
-2.82066e-10
-3.04045e-10
-3.26076e-10
-3.48034e-10
-3.70104e-10
-3.92129e-10
-4.1417e-10
-4.36182e-10
-4.58239e-10
-4.80233e-10
-5.02232e-10
-5.24289e-10
-5.46304e-10
-5.68316e-10
-5.90345e-10
-6.12379e-10
-6.3439e-10
-6.56434e-10
-6.78447e-10
-7.00469e-10
-7.22487e-10
-7.44513e-10
-7.66559e-10
-7.88562e-10
-8.10566e-10
-8.32599e-10
-8.54652e-10
-8.76645e-10
-8.98657e-10
-9.20722e-10
-9.42725e-10
-9.64759e-10
-9.86772e-10
-1.00881e-09
-1.03082e-09
-1.05284e-09
-1.07489e-09
-1.09692e-09
-1.11895e-09
-1.14095e-09
-1.16299e-09
-1.18499e-09
-1.20706e-09
-1.2291e-09
-1.25115e-09
-1.27321e-09
-1.29527e-09
-1.31736e-09
-1.33952e-09
-1.36169e-09
-1.38392e-09
-1.40626e-09
-1.42871e-09
-1.45135e-09
-1.47432e-09
-1.49762e-09
-1.52149e-09
-1.54614e-09
-1.57193e-09
-1.59926e-09
-1.6288e-09
-1.66134e-09
-1.69811e-09
-1.74072e-09
-1.79119e-09
-1.85199e-09
-1.92119e-09
-2.0344e-09
-1.47239e-11
-4.0499e-11
-5.98666e-11
-8.2663e-11
-1.05261e-10
-1.27585e-10
-1.49804e-10
-1.7192e-10
-1.93966e-10
-2.16007e-10
-2.38052e-10
-2.60056e-10
-2.82052e-10
-3.04071e-10
-3.26076e-10
-3.48131e-10
-3.70113e-10
-3.92135e-10
-4.14205e-10
-4.36189e-10
-4.58218e-10
-4.80274e-10
-5.02263e-10
-5.24275e-10
-5.46326e-10
-5.68353e-10
-5.90371e-10
-6.12381e-10
-6.34405e-10
-6.56435e-10
-6.78463e-10
-7.00486e-10
-7.22514e-10
-7.44531e-10
-7.66555e-10
-7.8857e-10
-8.10597e-10
-8.32613e-10
-8.54656e-10
-8.76673e-10
-8.98689e-10
-9.20724e-10
-9.42741e-10
-9.64776e-10
-9.86777e-10
-1.00882e-09
-1.03086e-09
-1.05287e-09
-1.0749e-09
-1.09693e-09
-1.11894e-09
-1.14098e-09
-1.163e-09
-1.18507e-09
-1.20706e-09
-1.22915e-09
-1.25116e-09
-1.27323e-09
-1.29529e-09
-1.3174e-09
-1.33953e-09
-1.3617e-09
-1.38396e-09
-1.40632e-09
-1.42875e-09
-1.45145e-09
-1.47443e-09
-1.49775e-09
-1.52169e-09
-1.54643e-09
-1.57228e-09
-1.59971e-09
-1.6294e-09
-1.66221e-09
-1.69922e-09
-1.74213e-09
-1.79297e-09
-1.85428e-09
-1.92499e-09
-2.02291e-09
-3.06352e-11
-4.06334e-11
-6.00815e-11
-8.27574e-11
-1.05302e-10
-1.27591e-10
-1.49769e-10
-1.71899e-10
-1.93976e-10
-2.16001e-10
-2.38004e-10
-2.60043e-10
-2.82042e-10
-3.04054e-10
-3.26066e-10
-3.48056e-10
-3.70095e-10
-3.92124e-10
-4.1412e-10
-4.3619e-10
-4.58223e-10
-4.80197e-10
-5.02238e-10
-5.2429e-10
-5.46297e-10
-5.68323e-10
-5.90345e-10
-6.1236e-10
-6.3439e-10
-6.56431e-10
-6.7843e-10
-7.00468e-10
-7.22504e-10
-7.44523e-10
-7.66548e-10
-7.88554e-10
-8.10578e-10
-8.32601e-10
-8.54651e-10
-8.76648e-10
-8.98688e-10
-9.20718e-10
-9.42716e-10
-9.64753e-10
-9.86782e-10
-1.00879e-09
-1.03084e-09
-1.05287e-09
-1.07488e-09
-1.09687e-09
-1.11894e-09
-1.14096e-09
-1.163e-09
-1.18501e-09
-1.20704e-09
-1.22904e-09
-1.25115e-09
-1.27321e-09
-1.29527e-09
-1.31738e-09
-1.33954e-09
-1.3617e-09
-1.38396e-09
-1.40627e-09
-1.42877e-09
-1.45148e-09
-1.4744e-09
-1.49784e-09
-1.52177e-09
-1.54652e-09
-1.57247e-09
-1.60001e-09
-1.62977e-09
-1.66276e-09
-1.70005e-09
-1.74324e-09
-1.79444e-09
-1.85604e-09
-1.92755e-09
-2.00993e-09
1.29849e-10
-1.79818e-11
-3.79187e-11
-6.01111e-11
-8.28015e-11
-1.05334e-10
-1.27592e-10
-1.49892e-10
-1.71918e-10
-1.9392e-10
-2.15993e-10
-2.38091e-10
-2.60029e-10
-2.82117e-10
-3.0406e-10
-3.26074e-10
-3.48081e-10
-3.70106e-10
-3.92113e-10
-4.14236e-10
-4.362e-10
-4.58193e-10
-4.803e-10
-5.02252e-10
-5.24234e-10
-5.46299e-10
-5.68332e-10
-5.90386e-10
-6.12388e-10
-6.34391e-10
-6.56451e-10
-6.78489e-10
-7.00472e-10
-7.22462e-10
-7.44515e-10
-7.6659e-10
-7.8855e-10
-8.10597e-10
-8.32602e-10
-8.54616e-10
-8.7665e-10
-8.98691e-10
-9.20707e-10
-9.42717e-10
-9.64811e-10
-9.8673e-10
-1.00883e-09
-1.03085e-09
-1.05279e-09
-1.07491e-09
-1.09698e-09
-1.11893e-09
-1.14095e-09
-1.16293e-09
-1.18504e-09
-1.20705e-09
-1.22921e-09
-1.25116e-09
-1.27324e-09
-1.29532e-09
-1.31737e-09
-1.33954e-09
-1.36171e-09
-1.38393e-09
-1.40637e-09
-1.4288e-09
-1.45147e-09
-1.47456e-09
-1.49784e-09
-1.52188e-09
-1.54667e-09
-1.57267e-09
-1.60024e-09
-1.63021e-09
-1.66328e-09
-1.70074e-09
-1.74418e-09
-1.79567e-09
-1.85771e-09
-1.93266e-09
-2.02235e-09
-2.13065e-09
1.175e-10
-2.94618e-11
-3.9149e-11
-6.01498e-11
-8.2839e-11
-1.05349e-10
-1.27609e-10
-1.49748e-10
-1.71947e-10
-1.93997e-10
-2.15988e-10
-2.38046e-10
-2.60033e-10
-2.81978e-10
-3.04088e-10
-3.26074e-10
-3.48161e-10
-3.70069e-10
-3.92167e-10
-4.14088e-10
-4.36121e-10
-4.58169e-10
-4.80195e-10
-5.02248e-10
-5.24332e-10
-5.46305e-10
-5.68347e-10
-5.90339e-10
-6.12355e-10
-6.34389e-10
-6.56322e-10
-6.78447e-10
-7.00471e-10
-7.22496e-10
-7.44546e-10
-7.66526e-10
-7.88562e-10
-8.10574e-10
-8.32589e-10
-8.54621e-10
-8.76651e-10
-8.98683e-10
-9.20694e-10
-9.42715e-10
-9.6475e-10
-9.8678e-10
-1.00881e-09
-1.03074e-09
-1.05291e-09
-1.07486e-09
-1.09684e-09
-1.11895e-09
-1.141e-09
-1.16303e-09
-1.18505e-09
-1.20704e-09
-1.22902e-09
-1.25115e-09
-1.27311e-09
-1.29526e-09
-1.31748e-09
-1.3395e-09
-1.36174e-09
-1.38401e-09
-1.4063e-09
-1.42878e-09
-1.45156e-09
-1.47444e-09
-1.49796e-09
-1.52195e-09
-1.54677e-09
-1.57278e-09
-1.6005e-09
-1.63038e-09
-1.66371e-09
-1.70128e-09
-1.74488e-09
-1.7966e-09
-1.85893e-09
-1.93309e-09
-2.01481e-09
-2.14273e-09
-2.33618e-09
1.12342e-10
-1.79459e-11
-3.72366e-11
-6.00629e-11
-8.28661e-11
-1.05306e-10
-1.27617e-10
-1.49921e-10
-1.71898e-10
-1.93961e-10
-2.15993e-10
-2.38031e-10
-2.6006e-10
-2.82094e-10
-3.0402e-10
-3.2611e-10
-3.47953e-10
-3.70166e-10
-3.92081e-10
-4.14182e-10
-4.36233e-10
-4.58232e-10
-4.80248e-10
-5.02247e-10
-5.24184e-10
-5.46335e-10
-5.68264e-10
-5.90332e-10
-6.12388e-10
-6.34366e-10
-6.56461e-10
-6.78453e-10
-7.00493e-10
-7.22494e-10
-7.44492e-10
-7.66536e-10
-7.88531e-10
-8.10565e-10
-8.32597e-10
-8.54619e-10
-8.76634e-10
-8.98684e-10
-9.20697e-10
-9.42725e-10
-9.64749e-10
-9.86764e-10
-1.0088e-09
-1.03086e-09
-1.05276e-09
-1.0749e-09
-1.09694e-09
-1.11895e-09
-1.14088e-09
-1.16296e-09
-1.18501e-09
-1.20706e-09
-1.22912e-09
-1.25115e-09
-1.27323e-09
-1.29533e-09
-1.3173e-09
-1.3396e-09
-1.36164e-09
-1.38393e-09
-1.40633e-09
-1.42884e-09
-1.45152e-09
-1.47456e-09
-1.49796e-09
-1.522e-09
-1.54683e-09
-1.57286e-09
-1.6006e-09
-1.63063e-09
-1.66381e-09
-1.70157e-09
-1.74533e-09
-1.7972e-09
-1.85978e-09
-1.93601e-09
-2.02669e-09
-2.14974e-09
-2.33956e-09
1.07332e-10
-2.47534e-11
-3.81036e-11
-6.01227e-11
-8.28376e-11
-1.05384e-10
-1.27617e-10
-1.49779e-10
-1.71945e-10
-1.93903e-10
-2.16098e-10
-2.38032e-10
-2.59949e-10
-2.82087e-10
-3.04096e-10
-3.25985e-10
-3.48134e-10
-3.70079e-10
-3.92195e-10
-4.14163e-10
-4.36114e-10
-4.5814e-10
-4.80156e-10
-5.02245e-10
-5.24286e-10
-5.46315e-10
-5.6835e-10
-5.90335e-10
-6.12371e-10
-6.34399e-10
-6.56378e-10
-6.78424e-10
-7.00363e-10
-7.2248e-10
-7.445e-10
-7.66554e-10
-7.88534e-10
-8.10563e-10
-8.32595e-10
-8.54598e-10
-8.76636e-10
-8.9865e-10
-9.20695e-10
-9.42698e-10
-9.64746e-10
-9.86748e-10
-1.0088e-09
-1.03077e-09
-1.05292e-09
-1.07491e-09
-1.09689e-09
-1.11886e-09
-1.14095e-09
-1.16299e-09
-1.18505e-09
-1.20702e-09
-1.2291e-09
-1.25119e-09
-1.27316e-09
-1.29521e-09
-1.31747e-09
-1.33948e-09
-1.36175e-09
-1.38397e-09
-1.40634e-09
-1.42879e-09
-1.45157e-09
-1.47453e-09
-1.49798e-09
-1.522e-09
-1.54691e-09
-1.57286e-09
-1.60063e-09
-1.63064e-09
-1.66399e-09
-1.70177e-09
-1.74552e-09
-1.79745e-09
-1.86011e-09
-1.93574e-09
-2.0214e-09
-2.15117e-09
-2.33232e-09
1.04991e-10
-2.47283e-11
-3.80982e-11
-6.01059e-11
-8.28409e-11
-1.05326e-10
-1.27642e-10
-1.49829e-10
-1.71932e-10
-1.94047e-10
-2.15923e-10
-2.38042e-10
-2.60129e-10
-2.81966e-10
-3.04055e-10
-3.26097e-10
-3.47936e-10
-3.70081e-10
-3.92094e-10
-4.14116e-10
-4.36236e-10
-4.58238e-10
-4.80282e-10
-5.02229e-10
-5.24247e-10
-5.46223e-10
-5.68283e-10
-5.90344e-10
-6.12347e-10
-6.34348e-10
-6.56432e-10
-6.78428e-10
-7.0051e-10
-7.22494e-10
-7.44429e-10
-7.66539e-10
-7.88538e-10
-8.10564e-10
-8.32615e-10
-8.54611e-10
-8.76643e-10
-8.98673e-10
-9.20691e-10
-9.4273e-10
-9.64745e-10
-9.86739e-10
-1.00882e-09
-1.03084e-09
-1.05274e-09
-1.07483e-09
-1.09692e-09
-1.11894e-09
-1.14093e-09
-1.16295e-09
-1.18499e-09
-1.20708e-09
-1.22909e-09
-1.25109e-09
-1.27322e-09
-1.2953e-09
-1.31733e-09
-1.33954e-09
-1.36164e-09
-1.384e-09
-1.40636e-09
-1.42884e-09
-1.45151e-09
-1.47453e-09
-1.49793e-09
-1.52204e-09
-1.54679e-09
-1.57293e-09
-1.60053e-09
-1.63068e-09
-1.66392e-09
-1.70159e-09
-1.74545e-09
-1.79735e-09
-1.85999e-09
-1.93547e-09
-2.02119e-09
-2.15121e-09
-2.33054e-09
1.05514e-10
-1.83098e-11
-3.73123e-11
-6.00887e-11
-8.28428e-11
-1.05364e-10
-1.27576e-10
-1.49871e-10
-1.71916e-10
-1.93866e-10
-2.16104e-10
-2.38044e-10
-2.59911e-10
-2.82156e-10
-3.04035e-10
-3.26093e-10
-3.48044e-10
-3.70136e-10
-3.92197e-10
-4.14195e-10
-4.36124e-10
-4.58182e-10
-4.80167e-10
-5.02239e-10
-5.24215e-10
-5.46306e-10
-5.68326e-10
-5.9032e-10
-6.12415e-10
-6.34419e-10
-6.56398e-10
-6.7842e-10
-7.00407e-10
-7.22412e-10
-7.44617e-10
-7.66522e-10
-7.88548e-10
-8.10564e-10
-8.32615e-10
-8.54582e-10
-8.76654e-10
-8.98663e-10
-9.20692e-10
-9.42725e-10
-9.64749e-10
-9.86772e-10
-1.00877e-09
-1.03082e-09
-1.05287e-09
-1.07495e-09
-1.0969e-09
-1.1189e-09
-1.1409e-09
-1.16299e-09
-1.18503e-09
-1.20704e-09
-1.2291e-09
-1.25115e-09
-1.27319e-09
-1.29527e-09
-1.31744e-09
-1.33953e-09
-1.36176e-09
-1.38394e-09
-1.40626e-09
-1.4288e-09
-1.45153e-09
-1.47454e-09
-1.498e-09
-1.52192e-09
-1.54681e-09
-1.57275e-09
-1.60055e-09
-1.63051e-09
-1.66369e-09
-1.7015e-09
-1.74508e-09
-1.79689e-09
-1.85939e-09
-1.93556e-09
-2.02662e-09
-2.14989e-09
-2.33326e-09
1.09305e-10
-2.92484e-11
-3.91224e-11
-6.01646e-11
-8.283e-11
-1.05307e-10
-1.27672e-10
-1.49727e-10
-1.71936e-10
-1.93994e-10
-2.15928e-10
-2.38058e-10
-2.6014e-10
-2.8189e-10
-3.04077e-10
-3.26039e-10
-3.48062e-10
-3.70002e-10
-3.92088e-10
-4.14112e-10
-4.36218e-10
-4.58182e-10
-4.80267e-10
-5.02232e-10
-5.24262e-10
-5.46299e-10
-5.68267e-10
-5.90347e-10
-6.12292e-10
-6.34355e-10
-6.56423e-10
-6.78405e-10
-7.00449e-10
-7.22546e-10
-7.44399e-10
-7.6651e-10
-7.88576e-10
-8.10563e-10
-8.32625e-10
-8.5461e-10
-8.76656e-10
-8.98664e-10
-9.207e-10
-9.42729e-10
-9.6476e-10
-9.86771e-10
-1.0088e-09
-1.03082e-09
-1.05283e-09
-1.0748e-09
-1.09694e-09
-1.11891e-09
-1.14086e-09
-1.16297e-09
-1.18499e-09
-1.20708e-09
-1.22907e-09
-1.25114e-09
-1.27321e-09
-1.29526e-09
-1.31734e-09
-1.33948e-09
-1.36166e-09
-1.38398e-09
-1.40634e-09
-1.4288e-09
-1.4515e-09
-1.47446e-09
-1.49792e-09
-1.52188e-09
-1.54674e-09
-1.57278e-09
-1.60028e-09
-1.63026e-09
-1.66346e-09
-1.70091e-09
-1.74444e-09
-1.7961e-09
-1.85829e-09
-1.93257e-09
-2.01363e-09
-2.1455e-09
-2.33688e-09
1.22215e-10
-1.81676e-11
-3.7996e-11
-6.00993e-11
-8.28007e-11
-1.05333e-10
-1.27615e-10
-1.49796e-10
-1.71932e-10
-1.93952e-10
-2.16065e-10
-2.38019e-10
-2.59945e-10
-2.82162e-10
-3.04036e-10
-3.26107e-10
-3.48042e-10
-3.70157e-10
-3.92201e-10
-4.14206e-10
-4.36154e-10
-4.58203e-10
-4.80193e-10
-5.02234e-10
-5.24262e-10
-5.46268e-10
-5.68377e-10
-5.90327e-10
-6.12403e-10
-6.34391e-10
-6.56403e-10
-6.78433e-10
-7.00527e-10
-7.22378e-10
-7.44582e-10
-7.66579e-10
-7.88518e-10
-8.10584e-10
-8.32631e-10
-8.54611e-10
-8.76673e-10
-8.98667e-10
-9.20739e-10
-9.42729e-10
-9.64795e-10
-9.86762e-10
-1.00882e-09
-1.03086e-09
-1.05282e-09
-1.0749e-09
-1.09687e-09
-1.11894e-09
-1.14104e-09
-1.16297e-09
-1.18501e-09
-1.20703e-09
-1.22914e-09
-1.25113e-09
-1.27321e-09
-1.29529e-09
-1.31744e-09
-1.33952e-09
-1.36174e-09
-1.38393e-09
-1.40635e-09
-1.42878e-09
-1.45146e-09
-1.47452e-09
-1.49781e-09
-1.52188e-09
-1.54656e-09
-1.57247e-09
-1.60017e-09
-1.62997e-09
-1.66298e-09
-1.70034e-09
-1.74365e-09
-1.79497e-09
-1.85682e-09
-1.93157e-09
-2.02137e-09
-2.1353e-09
-2.3365e-09
1.42783e-10
-3.0706e-11
-4.06e-11
-6.00957e-11
-8.2744e-11
-1.05281e-10
-1.27599e-10
-1.49777e-10
-1.71897e-10
-1.93957e-10
-2.15966e-10
-2.3804e-10
-2.60052e-10
-2.81942e-10
-3.04046e-10
-3.26043e-10
-3.48053e-10
-3.70076e-10
-3.9208e-10
-4.14105e-10
-4.36165e-10
-4.58186e-10
-4.80214e-10
-5.02238e-10
-5.24254e-10
-5.46306e-10
-5.6827e-10
-5.90327e-10
-6.12354e-10
-6.3439e-10
-6.56399e-10
-6.78411e-10
-7.00414e-10
-7.22517e-10
-7.44464e-10
-7.6649e-10
-7.88589e-10
-8.10581e-10
-8.3261e-10
-8.54634e-10
-8.76664e-10
-8.98669e-10
-9.20723e-10
-9.4273e-10
-9.64751e-10
-9.86787e-10
-1.00881e-09
-1.0308e-09
-1.05284e-09
-1.07486e-09
-1.0969e-09
-1.11891e-09
-1.14088e-09
-1.16298e-09
-1.185e-09
-1.20705e-09
-1.22904e-09
-1.25114e-09
-1.2732e-09
-1.29527e-09
-1.31735e-09
-1.33951e-09
-1.36168e-09
-1.38393e-09
-1.40627e-09
-1.42876e-09
-1.45144e-09
-1.47439e-09
-1.49778e-09
-1.52166e-09
-1.54644e-09
-1.57232e-09
-1.59982e-09
-1.62954e-09
-1.66236e-09
-1.69953e-09
-1.74257e-09
-1.79354e-09
-1.8549e-09
-1.92617e-09
-2.00839e-09
-2.12243e-09
-1.47124e-11
-4.04876e-11
-5.98607e-11
-8.26476e-11
-1.05261e-10
-1.27591e-10
-1.49776e-10
-1.71897e-10
-1.93962e-10
-2.16003e-10
-2.38021e-10
-2.60015e-10
-2.82097e-10
-3.04037e-10
-3.26072e-10
-3.4808e-10
-3.70097e-10
-3.92141e-10
-4.14189e-10
-4.36183e-10
-4.58207e-10
-4.80231e-10
-5.02236e-10
-5.24285e-10
-5.46282e-10
-5.68354e-10
-5.90345e-10
-6.12359e-10
-6.34393e-10
-6.56431e-10
-6.78424e-10
-7.00489e-10
-7.22453e-10
-7.44529e-10
-7.66566e-10
-7.88553e-10
-8.10592e-10
-8.32636e-10
-8.54638e-10
-8.76673e-10
-8.98705e-10
-9.20738e-10
-9.4274e-10
-9.64786e-10
-9.86786e-10
-1.00881e-09
-1.03085e-09
-1.05285e-09
-1.07488e-09
-1.0969e-09
-1.11894e-09
-1.14101e-09
-1.16299e-09
-1.18501e-09
-1.20705e-09
-1.22912e-09
-1.25116e-09
-1.2732e-09
-1.29528e-09
-1.31739e-09
-1.33952e-09
-1.36168e-09
-1.38393e-09
-1.40629e-09
-1.42875e-09
-1.45139e-09
-1.47438e-09
-1.49767e-09
-1.52161e-09
-1.54627e-09
-1.57208e-09
-1.59953e-09
-1.6291e-09
-1.66174e-09
-1.69861e-09
-1.7413e-09
-1.79187e-09
-1.8529e-09
-1.92334e-09
-2.02095e-09
-1.47157e-14
-4.00209e-11
-5.94984e-11
-8.24637e-11
-1.05149e-10
-1.27516e-10
-1.4973e-10
-1.71862e-10
-1.93932e-10
-2.15974e-10
-2.38013e-10
-2.60025e-10
-2.8198e-10
-3.04025e-10
-3.26072e-10
-3.48036e-10
-3.70084e-10
-3.92109e-10
-4.14124e-10
-4.36155e-10
-4.58186e-10
-4.80199e-10
-5.02261e-10
-5.24251e-10
-5.46281e-10
-5.68298e-10
-5.90321e-10
-6.12363e-10
-6.34368e-10
-6.56363e-10
-6.7843e-10
-7.00435e-10
-7.22459e-10
-7.44515e-10
-7.66521e-10
-7.88547e-10
-8.10596e-10
-8.32588e-10
-8.54638e-10
-8.76657e-10
-8.98666e-10
-9.20722e-10
-9.42707e-10
-9.64753e-10
-9.8678e-10
-1.00881e-09
-1.03081e-09
-1.05284e-09
-1.07487e-09
-1.09691e-09
-1.11891e-09
-1.14091e-09
-1.16299e-09
-1.185e-09
-1.20705e-09
-1.22906e-09
-1.25111e-09
-1.2732e-09
-1.29526e-09
-1.31739e-09
-1.33948e-09
-1.36166e-09
-1.3839e-09
-1.40624e-09
-1.42868e-09
-1.45131e-09
-1.47426e-09
-1.4976e-09
-1.52141e-09
-1.54605e-09
-1.5717e-09
-1.59892e-09
-1.62838e-09
-1.66075e-09
-1.69738e-09
-1.73975e-09
-1.78989e-09
-1.85037e-09
-1.91922e-09
-2.03215e-09
-1.49545e-11
-3.22327e-11
-5.74364e-11
-8.16583e-11
-1.04731e-10
-1.273e-10
-1.49609e-10
-1.71752e-10
-1.93875e-10
-2.15943e-10
-2.37978e-10
-2.60012e-10
-2.8203e-10
-3.04056e-10
-3.26049e-10
-3.48074e-10
-3.7011e-10
-3.92136e-10
-4.14164e-10
-4.36182e-10
-4.5822e-10
-4.80235e-10
-5.02225e-10
-5.24285e-10
-5.46301e-10
-5.68339e-10
-5.90364e-10
-6.12383e-10
-6.34397e-10
-6.5644e-10
-6.78447e-10
-7.00469e-10
-7.22478e-10
-7.44514e-10
-7.66548e-10
-7.88565e-10
-8.10589e-10
-8.32595e-10
-8.54628e-10
-8.76675e-10
-8.98679e-10
-9.20688e-10
-9.42738e-10
-9.64727e-10
-9.86794e-10
-1.0088e-09
-1.03084e-09
-1.05287e-09
-1.07489e-09
-1.09691e-09
-1.11894e-09
-1.14096e-09
-1.16299e-09
-1.18501e-09
-1.20706e-09
-1.2291e-09
-1.25116e-09
-1.27316e-09
-1.29526e-09
-1.31735e-09
-1.33949e-09
-1.36162e-09
-1.38381e-09
-1.4061e-09
-1.42852e-09
-1.45104e-09
-1.47386e-09
-1.497e-09
-1.52063e-09
-1.54486e-09
-1.57017e-09
-1.59676e-09
-1.62522e-09
-1.65636e-09
-1.69126e-09
-1.73142e-09
-1.77905e-09
-1.83737e-09
-1.90946e-09
-1.99329e-09
1.46059e-10
-2.4158e-11
-3.36993e-11
-5.80357e-11
-8.19157e-11
-1.04887e-10
-1.27391e-10
-1.49671e-10
-1.71802e-10
-1.93902e-10
-2.15978e-10
-2.3799e-10
-2.60013e-10
-2.82049e-10
-3.04037e-10
-3.26085e-10
-3.48101e-10
-3.70118e-10
-3.92135e-10
-4.14178e-10
-4.36202e-10
-4.58202e-10
-4.80234e-10
-5.02276e-10
-5.24305e-10
-5.4632e-10
-5.68337e-10
-5.90366e-10
-6.12391e-10
-6.34464e-10
-6.56442e-10
-6.78456e-10
-7.00489e-10
-7.2251e-10
-7.44538e-10
-7.66543e-10
-7.88577e-10
-8.10616e-10
-8.32619e-10
-8.54637e-10
-8.76679e-10
-8.98695e-10
-9.20714e-10
-9.42736e-10
-9.64765e-10
-9.86802e-10
-1.00884e-09
-1.03084e-09
-1.05287e-09
-1.07489e-09
-1.09694e-09
-1.11895e-09
-1.14097e-09
-1.16299e-09
-1.18505e-09
-1.20707e-09
-1.22912e-09
-1.25116e-09
-1.27325e-09
-1.2953e-09
-1.31736e-09
-1.3395e-09
-1.36164e-09
-1.38386e-09
-1.40618e-09
-1.42858e-09
-1.45117e-09
-1.47401e-09
-1.4972e-09
-1.52087e-09
-1.54526e-09
-1.57064e-09
-1.59742e-09
-1.62622e-09
-1.65766e-09
-1.693e-09
-1.73372e-09
-1.78201e-09
-1.84097e-09
-1.91366e-09
-1.9903e-09
-2.07513e-09
1.31471e-10
-9.75044e-12
-3.4355e-11
-5.84675e-11
-8.20949e-11
-1.04964e-10
-1.27431e-10
-1.49662e-10
-1.71807e-10
-1.93905e-10
-2.15941e-10
-2.38041e-10
-2.60024e-10
-2.81992e-10
-3.04085e-10
-3.26063e-10
-3.48027e-10
-3.70112e-10
-3.92146e-10
-4.14166e-10
-4.36194e-10
-4.5823e-10
-4.80225e-10
-5.0225e-10
-5.24293e-10
-5.46303e-10
-5.68339e-10
-5.90357e-10
-6.12377e-10
-6.34342e-10
-6.56445e-10
-6.78457e-10
-7.00411e-10
-7.22503e-10
-7.44492e-10
-7.66582e-10
-7.88582e-10
-8.10531e-10
-8.32615e-10
-8.54639e-10
-8.76659e-10
-8.98666e-10
-9.20719e-10
-9.42751e-10
-9.64758e-10
-9.86772e-10
-1.00881e-09
-1.03085e-09
-1.05287e-09
-1.07492e-09
-1.09689e-09
-1.11895e-09
-1.14097e-09
-1.163e-09
-1.18503e-09
-1.20703e-09
-1.22913e-09
-1.25116e-09
-1.27315e-09
-1.29527e-09
-1.31734e-09
-1.33952e-09
-1.36167e-09
-1.38388e-09
-1.40615e-09
-1.42865e-09
-1.45119e-09
-1.4741e-09
-1.49733e-09
-1.52104e-09
-1.54553e-09
-1.57105e-09
-1.59804e-09
-1.62701e-09
-1.65884e-09
-1.69465e-09
-1.73595e-09
-1.78495e-09
-1.84457e-09
-1.91803e-09
-2.01035e-09
-2.08123e-09
-2.29596e-09
1.51004e-10
-1.36501e-11
-3.53106e-11
-5.88982e-11
-8.22719e-11
-1.05039e-10
-1.27479e-10
-1.49715e-10
-1.71827e-10
-1.93918e-10
-2.15961e-10
-2.38002e-10
-2.60011e-10
-2.82014e-10
-3.04031e-10
-3.26097e-10
-3.48113e-10
-3.70106e-10
-3.92152e-10
-4.14183e-10
-4.36206e-10
-4.58148e-10
-4.80216e-10
-5.02312e-10
-5.24312e-10
-5.46312e-10
-5.68333e-10
-5.90337e-10
-6.12404e-10
-6.3448e-10
-6.56401e-10
-6.78459e-10
-7.00479e-10
-7.22508e-10
-7.44525e-10
-7.66498e-10
-7.88527e-10
-8.10635e-10
-8.32633e-10
-8.5458e-10
-8.76667e-10
-8.98689e-10
-9.2069e-10
-9.4275e-10
-9.64697e-10
-9.86817e-10
-1.00882e-09
-1.03085e-09
-1.05287e-09
-1.07485e-09
-1.09696e-09
-1.11895e-09
-1.14098e-09
-1.16297e-09
-1.18502e-09
-1.20703e-09
-1.22911e-09
-1.25115e-09
-1.27327e-09
-1.29533e-09
-1.31739e-09
-1.33947e-09
-1.36165e-09
-1.38392e-09
-1.40617e-09
-1.42873e-09
-1.45129e-09
-1.47417e-09
-1.49747e-09
-1.52122e-09
-1.54586e-09
-1.57141e-09
-1.59852e-09
-1.6278e-09
-1.65994e-09
-1.69614e-09
-1.73802e-09
-1.78765e-09
-1.84787e-09
-1.92168e-09
-2.01113e-09
-2.03742e-09
-2.30688e-09
1.13699e-10
-9.3853e-12
-3.58612e-11
-5.92779e-11
-8.24573e-11
-1.05133e-10
-1.27529e-10
-1.49772e-10
-1.71851e-10
-1.93957e-10
-2.15997e-10
-2.38051e-10
-2.60016e-10
-2.82075e-10
-3.04096e-10
-3.2608e-10
-3.48017e-10
-3.70114e-10
-3.92161e-10
-4.14182e-10
-4.36185e-10
-4.58256e-10
-4.80236e-10
-5.02242e-10
-5.24317e-10
-5.46309e-10
-5.68341e-10
-5.90347e-10
-6.12408e-10
-6.34393e-10
-6.56459e-10
-6.78448e-10
-7.00492e-10
-7.22487e-10
-7.44506e-10
-7.6657e-10
-7.8861e-10
-8.10562e-10
-8.32631e-10
-8.54662e-10
-8.76669e-10
-8.98649e-10
-9.2073e-10
-9.4275e-10
-9.64765e-10
-9.8682e-10
-1.00882e-09
-1.03082e-09
-1.05288e-09
-1.07491e-09
-1.09691e-09
-1.11899e-09
-1.14093e-09
-1.163e-09
-1.185e-09
-1.2071e-09
-1.22911e-09
-1.25115e-09
-1.27321e-09
-1.29532e-09
-1.31735e-09
-1.33955e-09
-1.3617e-09
-1.38389e-09
-1.40631e-09
-1.42868e-09
-1.4513e-09
-1.47433e-09
-1.49755e-09
-1.52143e-09
-1.54604e-09
-1.57179e-09
-1.59905e-09
-1.6285e-09
-1.66093e-09
-1.69754e-09
-1.73989e-09
-1.79011e-09
-1.85088e-09
-1.92544e-09
-2.01994e-09
-2.07926e-09
-2.29619e-09
9.02744e-11
-1.37764e-11
-3.74866e-11
-5.9798e-11
-8.26929e-11
-1.05272e-10
-1.27669e-10
-1.49812e-10
-1.71953e-10
-1.93988e-10
-2.16026e-10
-2.38123e-10
-2.60094e-10
-2.81998e-10
-3.04133e-10
-3.26077e-10
-3.48179e-10
-3.70147e-10
-3.92178e-10
-4.14186e-10
-4.36264e-10
-4.58134e-10
-4.80284e-10
-5.0235e-10
-5.24279e-10
-5.46313e-10
-5.68371e-10
-5.90348e-10
-6.12432e-10
-6.34438e-10
-6.56477e-10
-6.7845e-10
-7.00517e-10
-7.22551e-10
-7.44527e-10
-7.66469e-10
-7.88619e-10
-8.10624e-10
-8.32676e-10
-8.54631e-10
-8.76732e-10
-8.98731e-10
-9.20706e-10
-9.42797e-10
-9.64777e-10
-9.86842e-10
-1.00884e-09
-1.03088e-09
-1.05286e-09
-1.07493e-09
-1.09689e-09
-1.11895e-09
-1.14101e-09
-1.16301e-09
-1.18511e-09
-1.20705e-09
-1.2292e-09
-1.2512e-09
-1.27324e-09
-1.29533e-09
-1.31742e-09
-1.33952e-09
-1.36172e-09
-1.38394e-09
-1.40625e-09
-1.4288e-09
-1.45144e-09
-1.47442e-09
-1.49771e-09
-1.52162e-09
-1.54634e-09
-1.5721e-09
-1.59955e-09
-1.62916e-09
-1.66186e-09
-1.69877e-09
-1.74157e-09
-1.79223e-09
-1.85338e-09
-1.92745e-09
-2.02097e-09
-2.1268e-09
-2.29224e-09
8.00953e-11
-1.72469e-11
-3.83774e-11
-6.00919e-11
-8.28562e-11
-1.0535e-10
-1.27703e-10
-1.49833e-10
-1.71948e-10
-1.94009e-10
-2.16048e-10
-2.38037e-10
-2.60065e-10
-2.82099e-10
-3.04073e-10
-3.26122e-10
-3.48019e-10
-3.70141e-10
-3.92179e-10
-4.14136e-10
-4.36131e-10
-4.58253e-10
-4.80181e-10
-5.02252e-10
-5.24377e-10
-5.46284e-10
-5.68347e-10
-5.90374e-10
-6.12347e-10
-6.34435e-10
-6.56462e-10
-6.78445e-10
-7.00476e-10
-7.22481e-10
-7.44517e-10
-7.66563e-10
-7.88598e-10
-8.10613e-10
-8.32668e-10
-8.54631e-10
-8.76693e-10
-8.98718e-10
-9.20725e-10
-9.42785e-10
-9.64691e-10
-9.8682e-10
-1.00881e-09
-1.03087e-09
-1.05295e-09
-1.07487e-09
-1.09691e-09
-1.11898e-09
-1.141e-09
-1.16303e-09
-1.18494e-09
-1.20712e-09
-1.22902e-09
-1.25113e-09
-1.27324e-09
-1.29532e-09
-1.31741e-09
-1.33954e-09
-1.36173e-09
-1.38396e-09
-1.40626e-09
-1.42876e-09
-1.45151e-09
-1.47436e-09
-1.4978e-09
-1.52174e-09
-1.54647e-09
-1.57238e-09
-1.5999e-09
-1.62964e-09
-1.66254e-09
-1.6997e-09
-1.74279e-09
-1.79386e-09
-1.8553e-09
-1.92924e-09
-2.02077e-09
-2.14294e-09
-2.29053e-09
5.26335e-11
-1.57749e-11
-3.76435e-11
-6.02226e-11
-8.29155e-11
-1.05419e-10
-1.27726e-10
-1.49868e-10
-1.71965e-10
-1.94027e-10
-2.16058e-10
-2.38066e-10
-2.60127e-10
-2.82102e-10
-3.04049e-10
-3.2614e-10
-3.48111e-10
-3.70196e-10
-3.92172e-10
-4.14147e-10
-4.36194e-10
-4.58239e-10
-4.80317e-10
-5.02311e-10
-5.24197e-10
-5.4633e-10
-5.6836e-10
-5.90346e-10
-6.12462e-10
-6.34418e-10
-6.56494e-10
-6.78418e-10
-7.00537e-10
-7.22503e-10
-7.44506e-10
-7.66548e-10
-7.8861e-10
-8.10588e-10
-8.32653e-10
-8.54666e-10
-8.76686e-10
-8.98695e-10
-9.20707e-10
-9.4278e-10
-9.64744e-10
-9.86832e-10
-1.00883e-09
-1.03088e-09
-1.05283e-09
-1.07491e-09
-1.09696e-09
-1.11896e-09
-1.14093e-09
-1.16302e-09
-1.18503e-09
-1.20712e-09
-1.2292e-09
-1.25118e-09
-1.27327e-09
-1.29532e-09
-1.31737e-09
-1.33955e-09
-1.36176e-09
-1.38393e-09
-1.40629e-09
-1.4289e-09
-1.45141e-09
-1.47465e-09
-1.49783e-09
-1.52185e-09
-1.54658e-09
-1.57262e-09
-1.60019e-09
-1.63003e-09
-1.66306e-09
-1.70047e-09
-1.74378e-09
-1.79512e-09
-1.85699e-09
-1.93216e-09
-2.02454e-09
-2.18171e-09
-2.2919e-09
5.02187e-11
-1.92401e-11
-3.86686e-11
-6.03456e-11
-8.29848e-11
-1.05441e-10
-1.27755e-10
-1.49858e-10
-1.71977e-10
-1.94029e-10
-2.16062e-10
-2.37978e-10
-2.60105e-10
-2.82064e-10
-3.04204e-10
-3.26036e-10
-3.48221e-10
-3.70059e-10
-3.92121e-10
-4.1417e-10
-4.36199e-10
-4.58194e-10
-4.80193e-10
-5.02204e-10
-5.24383e-10
-5.46305e-10
-5.68308e-10
-5.90386e-10
-6.12353e-10
-6.34446e-10
-6.56368e-10
-6.78483e-10
-7.00498e-10
-7.22509e-10
-7.44544e-10
-7.66479e-10
-7.88596e-10
-8.10583e-10
-8.32643e-10
-8.54652e-10
-8.76681e-10
-8.98683e-10
-9.2072e-10
-9.42771e-10
-9.64738e-10
-9.8681e-10
-1.00879e-09
-1.03082e-09
-1.05296e-09
-1.07486e-09
-1.09693e-09
-1.11891e-09
-1.14109e-09
-1.16305e-09
-1.18505e-09
-1.20707e-09
-1.22903e-09
-1.25107e-09
-1.27323e-09
-1.29535e-09
-1.31748e-09
-1.33953e-09
-1.36173e-09
-1.384e-09
-1.4063e-09
-1.42879e-09
-1.45159e-09
-1.47442e-09
-1.49797e-09
-1.52185e-09
-1.54676e-09
-1.57271e-09
-1.6004e-09
-1.63034e-09
-1.66345e-09
-1.701e-09
-1.74451e-09
-1.79605e-09
-1.85814e-09
-1.93276e-09
-2.02274e-09
-2.18111e-09
-2.29335e-09
4.92089e-11
-1.56389e-11
-3.76106e-11
-6.0338e-11
-8.30391e-11
-1.05459e-10
-1.27736e-10
-1.49942e-10
-1.71951e-10
-1.94049e-10
-2.15991e-10
-2.3813e-10
-2.60107e-10
-2.82093e-10
-3.03973e-10
-3.26182e-10
-3.48051e-10
-3.7024e-10
-3.92129e-10
-4.14149e-10
-4.36146e-10
-4.58326e-10
-4.80243e-10
-5.02238e-10
-5.24245e-10
-5.46275e-10
-5.68405e-10
-5.90326e-10
-6.1243e-10
-6.34397e-10
-6.56479e-10
-6.78376e-10
-7.00535e-10
-7.22545e-10
-7.44504e-10
-7.66478e-10
-7.88601e-10
-8.10582e-10
-8.32629e-10
-8.54638e-10
-8.76679e-10
-8.98677e-10
-9.20723e-10
-9.42749e-10
-9.64722e-10
-9.86802e-10
-1.0088e-09
-1.03092e-09
-1.05282e-09
-1.07486e-09
-1.09694e-09
-1.11897e-09
-1.14094e-09
-1.16301e-09
-1.18492e-09
-1.2071e-09
-1.22921e-09
-1.25116e-09
-1.27328e-09
-1.29532e-09
-1.31727e-09
-1.33958e-09
-1.36174e-09
-1.384e-09
-1.40631e-09
-1.42894e-09
-1.45142e-09
-1.47471e-09
-1.49791e-09
-1.52201e-09
-1.54673e-09
-1.57283e-09
-1.60052e-09
-1.63054e-09
-1.66368e-09
-1.70134e-09
-1.74494e-09
-1.79666e-09
-1.85894e-09
-1.93473e-09
-2.02751e-09
-2.18253e-09
-2.29449e-09
4.81757e-11
-1.74883e-11
-3.82227e-11
-6.03925e-11
-8.30179e-11
-1.05485e-10
-1.27766e-10
-1.49808e-10
-1.71986e-10
-1.94022e-10
-2.16117e-10
-2.38019e-10
-2.60095e-10
-2.82083e-10
-3.04212e-10
-3.25993e-10
-3.48268e-10
-3.7001e-10
-3.92167e-10
-4.14192e-10
-4.36173e-10
-4.58118e-10
-4.80226e-10
-5.0233e-10
-5.24315e-10
-5.46353e-10
-5.68242e-10
-5.90377e-10
-6.12397e-10
-6.34447e-10
-6.56415e-10
-6.78488e-10
-7.00418e-10
-7.2248e-10
-7.4455e-10
-7.66479e-10
-7.88601e-10
-8.10573e-10
-8.32613e-10
-8.54638e-10
-8.76674e-10
-8.98672e-10
-9.20718e-10
-9.4274e-10
-9.64743e-10
-9.868e-10
-1.0088e-09
-1.03082e-09
-1.05295e-09
-1.07491e-09
-1.09682e-09
-1.11895e-09
-1.14106e-09
-1.16302e-09
-1.18512e-09
-1.20706e-09
-1.22898e-09
-1.25112e-09
-1.27323e-09
-1.29532e-09
-1.31751e-09
-1.33945e-09
-1.36174e-09
-1.38398e-09
-1.40632e-09
-1.42884e-09
-1.45167e-09
-1.47451e-09
-1.49802e-09
-1.5219e-09
-1.54682e-09
-1.57286e-09
-1.60066e-09
-1.6305e-09
-1.66382e-09
-1.70149e-09
-1.74516e-09
-1.7969e-09
-1.85925e-09
-1.9347e-09
-2.02612e-09
-2.18237e-09
-2.29576e-09
4.81218e-11
-1.75176e-11
-3.82271e-11
-6.03793e-11
-8.30272e-11
-1.05471e-10
-1.27761e-10
-1.49908e-10
-1.71975e-10
-1.94043e-10
-2.15986e-10
-2.38071e-10
-2.60194e-10
-2.82061e-10
-3.03973e-10
-3.26093e-10
-3.48108e-10
-3.7021e-10
-3.92032e-10
-4.14108e-10
-4.36224e-10
-4.58345e-10
-4.80277e-10
-5.02185e-10
-5.24311e-10
-5.46226e-10
-5.68401e-10
-5.90366e-10
-6.1234e-10
-6.34387e-10
-6.56395e-10
-6.78457e-10
-7.00524e-10
-7.22453e-10
-7.4452e-10
-7.66539e-10
-7.88551e-10
-8.10589e-10
-8.32595e-10
-8.54656e-10
-8.76655e-10
-8.9871e-10
-9.20716e-10
-9.42736e-10
-9.64741e-10
-9.86809e-10
-1.00879e-09
-1.03083e-09
-1.05287e-09
-1.07479e-09
-1.09693e-09
-1.11896e-09
-1.14095e-09
-1.163e-09
-1.18491e-09
-1.20706e-09
-1.22926e-09
-1.25116e-09
-1.27322e-09
-1.2953e-09
-1.31728e-09
-1.33958e-09
-1.36173e-09
-1.384e-09
-1.40634e-09
-1.42891e-09
-1.45143e-09
-1.47462e-09
-1.49789e-09
-1.52202e-09
-1.5468e-09
-1.57282e-09
-1.60053e-09
-1.63057e-09
-1.66377e-09
-1.70141e-09
-1.74503e-09
-1.79681e-09
-1.85912e-09
-1.93451e-09
-2.02601e-09
-2.1822e-09
-2.29572e-09
4.91895e-11
-1.58426e-11
-3.77018e-11
-6.03509e-11
-8.30024e-11
-1.05475e-10
-1.27721e-10
-1.49902e-10
-1.71935e-10
-1.94022e-10
-2.16081e-10
-2.38064e-10
-2.60091e-10
-2.82115e-10
-3.04107e-10
-3.26031e-10
-3.48261e-10
-3.70114e-10
-3.92088e-10
-4.14207e-10
-4.36135e-10
-4.58196e-10
-4.80153e-10
-5.0232e-10
-5.24322e-10
-5.46362e-10
-5.68291e-10
-5.90364e-10
-6.12333e-10
-6.34428e-10
-6.56514e-10
-6.78469e-10
-7.00452e-10
-7.22462e-10
-7.44503e-10
-7.66544e-10
-7.8862e-10
-8.10586e-10
-8.32584e-10
-8.54649e-10
-8.76661e-10
-8.98717e-10
-9.20719e-10
-9.4273e-10
-9.64738e-10
-9.86811e-10
-1.00879e-09
-1.03082e-09
-1.05292e-09
-1.07494e-09
-1.09686e-09
-1.11893e-09
-1.14106e-09
-1.16302e-09
-1.18511e-09
-1.20705e-09
-1.22894e-09
-1.25119e-09
-1.27323e-09
-1.29533e-09
-1.31746e-09
-1.33951e-09
-1.36174e-09
-1.3839e-09
-1.40632e-09
-1.4288e-09
-1.45165e-09
-1.47452e-09
-1.49796e-09
-1.5219e-09
-1.54677e-09
-1.57278e-09
-1.60047e-09
-1.63036e-09
-1.66358e-09
-1.70114e-09
-1.74479e-09
-1.79634e-09
-1.85854e-09
-1.93441e-09
-2.02721e-09
-2.18192e-09
-2.29464e-09
5.00544e-11
-1.92132e-11
-3.86112e-11
-6.03471e-11
-8.29638e-11
-1.05436e-10
-1.27739e-10
-1.49868e-10
-1.7196e-10
-1.94011e-10
-2.16075e-10
-2.3803e-10
-2.60122e-10
-2.82056e-10
-3.04049e-10
-3.26049e-10
-3.48104e-10
-3.70129e-10
-3.9208e-10
-4.14122e-10
-4.36215e-10
-4.58245e-10
-4.80283e-10
-5.02215e-10
-5.24226e-10
-5.46268e-10
-5.68361e-10
-5.9037e-10
-6.1242e-10
-6.34368e-10
-6.56261e-10
-6.78486e-10
-7.00454e-10
-7.22552e-10
-7.44496e-10
-7.66558e-10
-7.88563e-10
-8.10593e-10
-8.32578e-10
-8.54678e-10
-8.76656e-10
-8.98719e-10
-9.20723e-10