/*--------------------------------*- C++ -*----------------------------------*\
| =========                 |                                                 |
| \\      /  F ield         | OpenFOAM: The Open Source CFD Toolbox           |
|  \\    /   O peration     | Version:  v1906                                 |
|   \\  /    A nd           | Web:      www.OpenFOAM.com                      |
|    \\/     M anipulation  |                                                 |
\*---------------------------------------------------------------------------*/
FoamFile
{
    version     2.0;
    format      ascii;
    class       volScalarField;
    location    "52.5";
    object      p;
}
// * * * * * * * * * * * * * * * * * * * * * * * * * * * * * * * * * * * * * //

dimensions      [0 2 -2 0 0 0 0];


internalField   nonuniform List<scalar> 
243374
(
-7.99719e-15
-3.93064e-11
-5.90607e-11
-8.20423e-11
-1.04693e-10
-1.27026e-10
-1.4921e-10
-1.71282e-10
-1.9331e-10
-2.15294e-10
-2.37256e-10
-2.59222e-10
-2.8118e-10
-3.03129e-10
-3.25083e-10
-3.47031e-10
-3.68991e-10
-3.90951e-10
-4.12901e-10
-4.34868e-10
-4.56837e-10
-4.78782e-10
-5.00739e-10
-5.22712e-10
-5.44664e-10
-5.66627e-10
-5.8859e-10
-6.10544e-10
-6.32506e-10
-6.54471e-10
-6.76433e-10
-6.9839e-10
-7.20352e-10
-7.42314e-10
-7.64278e-10
-7.86239e-10
-8.0819e-10
-8.30159e-10
-8.52124e-10
-8.74077e-10
-8.96036e-10
-9.18006e-10
-9.39959e-10
-9.61922e-10
-9.83881e-10
-1.00584e-09
-1.0278e-09
-1.04977e-09
-1.07173e-09
-1.09369e-09
-1.11566e-09
-1.13763e-09
-1.1596e-09
-1.18157e-09
-1.20355e-09
-1.22554e-09
-1.24754e-09
-1.26955e-09
-1.2916e-09
-1.31368e-09
-1.33582e-09
-1.35804e-09
-1.38036e-09
-1.40284e-09
-1.42555e-09
-1.44858e-09
-1.47206e-09
-1.4962e-09
-1.52126e-09
-1.54761e-09
-1.57585e-09
-1.60658e-09
-1.64097e-09
-1.68038e-09
-1.72646e-09
-1.782e-09
-1.85012e-09
-1.93455e-09
-2.03359e-09
-2.18977e-09
-1.26947e-11
-4.01252e-11
-5.9431e-11
-8.22111e-11
-1.04784e-10
-1.2709e-10
-1.49255e-10
-1.71318e-10
-1.93322e-10
-2.15309e-10
-2.37276e-10
-2.59231e-10
-2.81179e-10
-3.03133e-10
-3.25087e-10
-3.47046e-10
-3.69004e-10
-3.90954e-10
-4.12921e-10
-4.34871e-10
-4.56828e-10
-4.78806e-10
-5.0076e-10
-5.22704e-10
-5.44675e-10
-5.66635e-10
-5.88594e-10
-6.10557e-10
-6.32515e-10
-6.54474e-10
-6.76438e-10
-6.98401e-10
-7.20359e-10
-7.42319e-10
-7.64285e-10
-7.86241e-10
-8.08208e-10
-8.30163e-10
-8.52125e-10
-8.74089e-10
-8.96047e-10
-9.18007e-10
-9.39969e-10
-9.61934e-10
-9.83883e-10
-1.00585e-09
-1.02782e-09
-1.04977e-09
-1.07174e-09
-1.09371e-09
-1.11566e-09
-1.13763e-09
-1.1596e-09
-1.18158e-09
-1.20355e-09
-1.22555e-09
-1.24754e-09
-1.26956e-09
-1.29161e-09
-1.31369e-09
-1.33582e-09
-1.35804e-09
-1.38037e-09
-1.40287e-09
-1.42557e-09
-1.44862e-09
-1.47214e-09
-1.4963e-09
-1.52143e-09
-1.54785e-09
-1.57618e-09
-1.60715e-09
-1.64173e-09
-1.68144e-09
-1.72823e-09
-1.7842e-09
-1.8529e-09
-1.93824e-09
-2.0396e-09
-2.18181e-09
-2.96691e-11
-4.0307e-11
-5.96771e-11
-8.23043e-11
-1.04826e-10
-1.27105e-10
-1.49249e-10
-1.71316e-10
-1.93332e-10
-2.15308e-10
-2.37263e-10
-2.59225e-10
-2.8118e-10
-3.03133e-10
-3.25082e-10
-3.47035e-10
-3.68985e-10
-3.90953e-10
-4.12901e-10
-4.34866e-10
-4.56834e-10
-4.78768e-10
-5.00737e-10
-5.2272e-10
-5.44665e-10
-5.66625e-10
-5.88591e-10
-6.10542e-10
-6.32506e-10
-6.54465e-10
-6.76425e-10
-6.98387e-10
-7.20356e-10
-7.42319e-10
-7.6427e-10
-7.86235e-10
-8.08189e-10
-8.30158e-10
-8.52125e-10
-8.74075e-10
-8.96042e-10
-9.18006e-10
-9.39961e-10
-9.61915e-10
-9.83887e-10
-1.00584e-09
-1.0278e-09
-1.04978e-09
-1.07172e-09
-1.09368e-09
-1.11566e-09
-1.13763e-09
-1.1596e-09
-1.18156e-09
-1.20354e-09
-1.22552e-09
-1.24753e-09
-1.26954e-09
-1.29158e-09
-1.31368e-09
-1.33582e-09
-1.35803e-09
-1.38037e-09
-1.40284e-09
-1.42557e-09
-1.44864e-09
-1.47215e-09
-1.49637e-09
-1.52151e-09
-1.54801e-09
-1.57642e-09
-1.60749e-09
-1.64223e-09
-1.68218e-09
-1.72921e-09
-1.78566e-09
-1.85488e-09
-1.94065e-09
-2.04331e-09
-2.16852e-09
1.26373e-10
-2.29364e-11
-3.79085e-11
-5.96974e-11
-8.2359e-11
-1.04864e-10
-1.27126e-10
-1.49301e-10
-1.71331e-10
-1.9333e-10
-2.15313e-10
-2.37286e-10
-2.5923e-10
-2.81185e-10
-3.03127e-10
-3.25088e-10
-3.47037e-10
-3.69008e-10
-3.90946e-10
-4.12922e-10
-4.34881e-10
-4.56827e-10
-4.78808e-10
-5.00754e-10
-5.22692e-10
-5.4467e-10
-5.66631e-10
-5.88592e-10
-6.10559e-10
-6.32512e-10
-6.54479e-10
-6.76444e-10
-6.984e-10
-7.20349e-10
-7.42309e-10
-7.64291e-10
-7.86233e-10
-8.08206e-10
-8.30158e-10
-8.52113e-10
-8.74076e-10
-8.96042e-10
-9.18002e-10
-9.39961e-10
-9.61939e-10
-9.83876e-10
-1.00585e-09
-1.02782e-09
-1.04975e-09
-1.07174e-09
-1.09371e-09
-1.11566e-09
-1.13762e-09
-1.15958e-09
-1.18157e-09
-1.20355e-09
-1.22555e-09
-1.24753e-09
-1.26956e-09
-1.2916e-09
-1.31366e-09
-1.33581e-09
-1.35803e-09
-1.38036e-09
-1.40286e-09
-1.42559e-09
-1.44864e-09
-1.4722e-09
-1.4964e-09
-1.52159e-09
-1.54814e-09
-1.5766e-09
-1.60776e-09
-1.64272e-09
-1.68279e-09
-1.73003e-09
-1.78684e-09
-1.8565e-09
-1.94286e-09
-2.04918e-09
-2.17468e-09
-2.30987e-09
1.16183e-10
-2.82056e-11
-3.86065e-11
-5.97457e-11
-8.23979e-11
-1.04889e-10
-1.27144e-10
-1.49268e-10
-1.71341e-10
-1.93342e-10
-2.15317e-10
-2.37277e-10
-2.5922e-10
-2.81176e-10
-3.03143e-10
-3.25082e-10
-3.47048e-10
-3.68982e-10
-3.90959e-10
-4.12901e-10
-4.34856e-10
-4.5682e-10
-4.78764e-10
-5.00745e-10
-5.22727e-10
-5.4467e-10
-5.66633e-10
-5.88588e-10
-6.10541e-10
-6.3251e-10
-6.54465e-10
-6.76425e-10
-6.98381e-10
-7.20354e-10
-7.42326e-10
-7.64267e-10
-7.86241e-10
-8.08194e-10
-8.30149e-10
-8.52114e-10
-8.74078e-10
-8.96035e-10
-9.17996e-10
-9.39956e-10
-9.61915e-10
-9.83889e-10
-1.00584e-09
-1.02779e-09
-1.04978e-09
-1.07172e-09
-1.09368e-09
-1.11565e-09
-1.13763e-09
-1.1596e-09
-1.18156e-09
-1.20353e-09
-1.22551e-09
-1.24753e-09
-1.26953e-09
-1.29157e-09
-1.31368e-09
-1.3358e-09
-1.35802e-09
-1.38035e-09
-1.40284e-09
-1.42556e-09
-1.44865e-09
-1.47217e-09
-1.49642e-09
-1.52162e-09
-1.54819e-09
-1.5767e-09
-1.60794e-09
-1.64292e-09
-1.68318e-09
-1.73059e-09
-1.78762e-09
-1.85757e-09
-1.9443e-09
-2.05058e-09
-2.17369e-09
-2.33019e-09
-2.57952e-09
1.10675e-10
-2.22144e-11
-3.72876e-11
-5.96714e-11
-8.24204e-11
-1.04884e-10
-1.27154e-10
-1.49314e-10
-1.71338e-10
-1.93341e-10
-2.15315e-10
-2.37279e-10
-2.59238e-10
-2.81183e-10
-3.03121e-10
-3.25095e-10
-3.47025e-10
-3.69006e-10
-3.90941e-10
-4.12912e-10
-4.34883e-10
-4.56837e-10
-4.7881e-10
-5.00749e-10
-5.22687e-10
-5.44669e-10
-5.66624e-10
-5.88589e-10
-6.10554e-10
-6.32506e-10
-6.54472e-10
-6.7644e-10
-6.9841e-10
-7.20355e-10
-7.42299e-10
-7.64277e-10
-7.86228e-10
-8.08191e-10
-8.30153e-10
-8.52114e-10
-8.74068e-10
-8.96039e-10
-9.17996e-10
-9.39962e-10
-9.6192e-10
-9.83879e-10
-1.00584e-09
-1.02781e-09
-1.04974e-09
-1.07173e-09
-1.0937e-09
-1.11566e-09
-1.1376e-09
-1.15957e-09
-1.18155e-09
-1.20354e-09
-1.22554e-09
-1.24752e-09
-1.26954e-09
-1.29159e-09
-1.31364e-09
-1.3358e-09
-1.358e-09
-1.38033e-09
-1.40283e-09
-1.42556e-09
-1.44862e-09
-1.47217e-09
-1.4964e-09
-1.52161e-09
-1.54819e-09
-1.57671e-09
-1.60797e-09
-1.64304e-09
-1.68333e-09
-1.73081e-09
-1.78798e-09
-1.85809e-09
-1.94509e-09
-2.05299e-09
-2.18159e-09
-2.33951e-09
-2.58055e-09
1.06199e-10
-2.51695e-11
-3.77706e-11
-5.97231e-11
-8.24227e-11
-1.04919e-10
-1.27154e-10
-1.49291e-10
-1.71347e-10
-1.93336e-10
-2.15329e-10
-2.37279e-10
-2.59213e-10
-2.81189e-10
-3.03145e-10
-3.25078e-10
-3.47045e-10
-3.6899e-10
-3.90967e-10
-4.12914e-10
-4.34856e-10
-4.56814e-10
-4.78769e-10
-5.00747e-10
-5.22719e-10
-5.44673e-10
-5.66634e-10
-5.88587e-10
-6.1055e-10
-6.32515e-10
-6.54471e-10
-6.76425e-10
-6.98376e-10
-7.20346e-10
-7.42331e-10
-7.6428e-10
-7.8623e-10
-8.0819e-10
-8.30147e-10
-8.52101e-10
-8.74069e-10
-8.96015e-10
-9.17994e-10
-9.3994e-10
-9.61918e-10
-9.83877e-10
-1.00584e-09
-1.02779e-09
-1.04979e-09
-1.07173e-09
-1.09368e-09
-1.11564e-09
-1.13763e-09
-1.1596e-09
-1.18156e-09
-1.20352e-09
-1.22551e-09
-1.24752e-09
-1.26952e-09
-1.29156e-09
-1.31366e-09
-1.33578e-09
-1.35799e-09
-1.38032e-09
-1.4028e-09
-1.42552e-09
-1.44859e-09
-1.47212e-09
-1.49636e-09
-1.52155e-09
-1.54813e-09
-1.57664e-09
-1.60789e-09
-1.64293e-09
-1.68324e-09
-1.73074e-09
-1.78792e-09
-1.85804e-09
-1.94507e-09
-2.05266e-09
-2.17894e-09
-2.34216e-09
-2.58164e-09
1.0465e-10
-2.51257e-11
-3.77561e-11
-5.97068e-11
-8.24223e-11
-1.04886e-10
-1.27164e-10
-1.49296e-10
-1.71345e-10
-1.93353e-10
-2.15306e-10
-2.37279e-10
-2.59239e-10
-2.81169e-10
-3.03127e-10
-3.25093e-10
-3.47026e-10
-3.68993e-10
-3.90939e-10
-4.12898e-10
-4.34879e-10
-4.56838e-10
-4.78798e-10
-5.00746e-10
-5.22697e-10
-5.44658e-10
-5.66624e-10
-5.88592e-10
-6.10542e-10
-6.32501e-10
-6.5447e-10
-6.76435e-10
-6.98404e-10
-7.20362e-10
-7.42292e-10
-7.64275e-10
-7.86229e-10
-8.08193e-10
-8.30156e-10
-8.5212e-10
-8.7407e-10
-8.96039e-10
-9.17992e-10
-9.39959e-10
-9.61918e-10
-9.83874e-10
-1.00585e-09
-1.02781e-09
-1.04974e-09
-1.07171e-09
-1.09369e-09
-1.11565e-09
-1.1376e-09
-1.15957e-09
-1.18155e-09
-1.20353e-09
-1.22552e-09
-1.2475e-09
-1.26952e-09
-1.29156e-09
-1.31363e-09
-1.33577e-09
-1.35797e-09
-1.3803e-09
-1.40278e-09
-1.42549e-09
-1.44854e-09
-1.47206e-09
-1.49627e-09
-1.52146e-09
-1.548e-09
-1.57649e-09
-1.60768e-09
-1.64268e-09
-1.68291e-09
-1.73031e-09
-1.78741e-09
-1.85741e-09
-1.94431e-09
-2.05164e-09
-2.17777e-09
-2.34177e-09
-2.5811e-09
1.05379e-10
-2.24445e-11
-3.73399e-11
-5.96902e-11
-8.24175e-11
-1.04912e-10
-1.27143e-10
-1.49298e-10
-1.7134e-10
-1.93325e-10
-2.15327e-10
-2.37277e-10
-2.59218e-10
-2.81194e-10
-3.03133e-10
-3.25086e-10
-3.47035e-10
-3.69e-10
-3.9097e-10
-4.12921e-10
-4.34859e-10
-4.56817e-10
-4.7878e-10
-5.00747e-10
-5.22706e-10
-5.44674e-10
-5.66637e-10
-5.88584e-10
-6.10558e-10
-6.3252e-10
-6.54472e-10
-6.76428e-10
-6.98385e-10
-7.20341e-10
-7.42336e-10
-7.64272e-10
-7.8623e-10
-8.08192e-10
-8.30152e-10
-8.52097e-10
-8.74073e-10
-8.96034e-10
-9.17993e-10
-9.39953e-10
-9.61918e-10
-9.83883e-10
-1.00583e-09
-1.0278e-09
-1.04978e-09
-1.07174e-09
-1.09368e-09
-1.11565e-09
-1.13762e-09
-1.15959e-09
-1.18155e-09
-1.20352e-09
-1.22551e-09
-1.24751e-09
-1.26951e-09
-1.29155e-09
-1.31363e-09
-1.33575e-09
-1.35795e-09
-1.38026e-09
-1.40273e-09
-1.42544e-09
-1.44848e-09
-1.47198e-09
-1.49617e-09
-1.52131e-09
-1.54781e-09
-1.57623e-09
-1.60736e-09
-1.64224e-09
-1.68234e-09
-1.72958e-09
-1.78646e-09
-1.8562e-09
-1.94278e-09
-2.05035e-09
-2.17877e-09
-2.33886e-09
-2.57874e-09
1.08774e-10
-2.80853e-11
-3.85956e-11
-5.97535e-11
-8.23985e-11
-1.04861e-10
-1.27155e-10
-1.49264e-10
-1.71338e-10
-1.93344e-10
-2.153e-10
-2.3728e-10
-2.59237e-10
-2.8116e-10
-3.03133e-10
-3.25082e-10
-3.47034e-10
-3.68982e-10
-3.90937e-10
-4.12896e-10
-4.34873e-10
-4.56827e-10
-4.7879e-10
-5.00745e-10
-5.22706e-10
-5.44664e-10
-5.66617e-10
-5.8859e-10
-6.10539e-10
-6.32497e-10
-6.54467e-10
-6.76429e-10
-6.98392e-10
-7.20363e-10
-7.42294e-10
-7.64268e-10
-7.86246e-10
-8.08192e-10
-8.30157e-10
-8.52117e-10
-8.74071e-10
-8.96037e-10
-9.17994e-10
-9.39958e-10
-9.61916e-10
-9.83881e-10
-1.00585e-09
-1.0278e-09
-1.04975e-09
-1.0717e-09
-1.09369e-09
-1.11564e-09
-1.13759e-09
-1.15957e-09
-1.18154e-09
-1.20352e-09
-1.2255e-09
-1.24749e-09
-1.2695e-09
-1.29153e-09
-1.31359e-09
-1.33572e-09
-1.35792e-09
-1.38023e-09
-1.4027e-09
-1.42538e-09
-1.4484e-09
-1.47188e-09
-1.49603e-09
-1.52113e-09
-1.54756e-09
-1.5759e-09
-1.6069e-09
-1.64164e-09
-1.68155e-09
-1.72851e-09
-1.78511e-09
-1.85444e-09
-1.94048e-09
-2.04629e-09
-2.16832e-09
-2.33111e-09
-2.57549e-09
1.20168e-10
-2.30442e-11
-3.79253e-11
-5.96817e-11
-8.23606e-11
-1.04865e-10
-1.27123e-10
-1.49272e-10
-1.71331e-10
-1.93324e-10
-2.15321e-10
-2.37271e-10
-2.59218e-10
-2.81192e-10
-3.03131e-10
-3.2509e-10
-3.47035e-10
-3.69005e-10
-3.90971e-10
-4.12923e-10
-4.34863e-10
-4.56828e-10
-4.78785e-10
-5.00745e-10
-5.22708e-10
-5.44667e-10
-5.6664e-10
-5.88588e-10
-6.10558e-10
-6.32521e-10
-6.54477e-10
-6.76432e-10
-6.98399e-10
-7.20342e-10
-7.42329e-10
-7.64287e-10
-7.86224e-10
-8.08201e-10
-8.30166e-10
-8.52114e-10
-8.74083e-10
-8.96038e-10
-9.18011e-10
-9.39958e-10
-9.6193e-10
-9.83879e-10
-1.00584e-09
-1.02781e-09
-1.04976e-09
-1.07174e-09
-1.09368e-09
-1.11565e-09
-1.13763e-09
-1.15957e-09
-1.18154e-09
-1.20351e-09
-1.2255e-09
-1.24749e-09
-1.26949e-09
-1.29153e-09
-1.3136e-09
-1.33571e-09
-1.3579e-09
-1.38019e-09
-1.40265e-09
-1.42531e-09
-1.44831e-09
-1.47176e-09
-1.49586e-09
-1.52096e-09
-1.54725e-09
-1.57547e-09
-1.60634e-09
-1.64089e-09
-1.68054e-09
-1.72717e-09
-1.78336e-09
-1.85215e-09
-1.93753e-09
-2.04287e-09
-2.16759e-09
-2.31383e-09
-2.57552e-09
1.46245e-10
-2.96923e-11
-4.02915e-11
-5.96828e-11
-8.22951e-11
-1.04806e-10
-1.27101e-10
-1.49242e-10
-1.71311e-10
-1.93323e-10
-2.15293e-10
-2.37271e-10
-2.59225e-10
-2.81159e-10
-3.03128e-10
-3.2508e-10
-3.47031e-10
-3.68984e-10
-3.90936e-10
-4.12897e-10
-4.34867e-10
-4.56823e-10
-4.7878e-10
-5.00748e-10
-5.22703e-10
-5.44667e-10
-5.66618e-10
-5.88586e-10
-6.10544e-10
-6.32499e-10
-6.5446e-10
-6.76426e-10
-6.98387e-10
-7.20361e-10
-7.42302e-10
-7.64263e-10
-7.86241e-10
-8.08196e-10
-8.30148e-10
-8.52124e-10
-8.74078e-10
-8.96035e-10
-9.17998e-10
-9.39957e-10
-9.61913e-10
-9.8388e-10
-1.00584e-09
-1.02779e-09
-1.04976e-09
-1.07171e-09
-1.09368e-09
-1.11563e-09
-1.13759e-09
-1.15957e-09
-1.18153e-09
-1.20351e-09
-1.22548e-09
-1.24747e-09
-1.26948e-09
-1.2915e-09
-1.31356e-09
-1.33567e-09
-1.35786e-09
-1.38015e-09
-1.40258e-09
-1.42524e-09
-1.4482e-09
-1.47161e-09
-1.49566e-09
-1.52055e-09
-1.54689e-09
-1.57498e-09
-1.60567e-09
-1.63997e-09
-1.67929e-09
-1.7255e-09
-1.78125e-09
-1.84931e-09
-1.93384e-09
-2.03526e-09
-2.15909e-09
-2.28738e-09
-1.26839e-11
-4.01247e-11
-5.94248e-11
-8.21989e-11
-1.04777e-10
-1.2708e-10
-1.49234e-10
-1.71306e-10
-1.93318e-10
-2.15303e-10
-2.37263e-10
-2.59219e-10
-2.81185e-10
-3.03127e-10
-3.25086e-10
-3.47043e-10
-3.68998e-10
-3.90961e-10
-4.12918e-10
-4.34871e-10
-4.56828e-10
-4.78791e-10
-5.00745e-10
-5.22711e-10
-5.44667e-10
-5.66638e-10
-5.88592e-10
-6.10551e-10
-6.32517e-10
-6.5448e-10
-6.76434e-10
-6.98395e-10
-7.20348e-10
-7.42324e-10
-7.64284e-10
-7.86233e-10
-8.08199e-10
-8.30169e-10
-8.52122e-10
-8.74085e-10
-8.96049e-10
-9.18006e-10
-9.39964e-10
-9.61929e-10
-9.8388e-10
-1.00584e-09
-1.02781e-09
-1.04976e-09
-1.07173e-09
-1.09368e-09
-1.11565e-09
-1.13762e-09
-1.15957e-09
-1.18154e-09
-1.20351e-09
-1.22549e-09
-1.24748e-09
-1.26947e-09
-1.2915e-09
-1.31356e-09
-1.33566e-09
-1.35784e-09
-1.38011e-09
-1.40253e-09
-1.42516e-09
-1.4481e-09
-1.47148e-09
-1.49546e-09
-1.5204e-09
-1.54651e-09
-1.57446e-09
-1.60495e-09
-1.63898e-09
-1.67794e-09
-1.72369e-09
-1.77897e-09
-1.8462e-09
-1.93007e-09
-2.02984e-09
-2.17038e-09
-2.42824e-14
-3.9303e-11
-5.90605e-11
-8.20283e-11
-1.04673e-10
-1.27014e-10
-1.49194e-10
-1.71276e-10
-1.93297e-10
-2.15282e-10
-2.37259e-10
-2.59218e-10
-2.81155e-10
-3.03123e-10
-3.25081e-10
-3.47028e-10
-3.6899e-10
-3.90942e-10
-4.12904e-10
-4.34862e-10
-4.56825e-10
-4.78778e-10
-5.0075e-10
-5.22705e-10
-5.44666e-10
-5.66623e-10
-5.88585e-10
-6.10552e-10
-6.32502e-10
-6.54457e-10
-6.76433e-10
-6.98386e-10
-7.20354e-10
-7.42308e-10
-7.64268e-10
-7.86234e-10
-8.08199e-10
-8.30152e-10
-8.52122e-10
-8.74078e-10
-8.96035e-10
-9.18e-10
-9.39955e-10
-9.61911e-10
-9.83876e-10
-1.00584e-09
-1.02779e-09
-1.04976e-09
-1.07172e-09
-1.09368e-09
-1.11563e-09
-1.13759e-09
-1.15957e-09
-1.18153e-09
-1.2035e-09
-1.22547e-09
-1.24745e-09
-1.26946e-09
-1.29147e-09
-1.31353e-09
-1.33562e-09
-1.35778e-09
-1.38004e-09
-1.40246e-09
-1.42504e-09
-1.44796e-09
-1.47127e-09
-1.49521e-09
-1.51999e-09
-1.54601e-09
-1.57378e-09
-1.60401e-09
-1.63771e-09
-1.6762e-09
-1.72138e-09
-1.77558e-09
-1.842e-09
-1.92467e-09
-2.02199e-09
-2.17652e-09
-1.59382e-11
-3.15588e-11
-5.69681e-11
-8.11844e-11
-1.04261e-10
-1.26795e-10
-1.49064e-10
-1.71186e-10
-1.93245e-10
-2.15254e-10
-2.37235e-10
-2.59204e-10
-2.81161e-10
-3.03126e-10
-3.25076e-10
-3.47031e-10
-3.68992e-10
-3.90949e-10
-4.12905e-10
-4.34863e-10
-4.5683e-10
-4.78788e-10
-5.00738e-10
-5.22708e-10
-5.44664e-10
-5.66632e-10
-5.88591e-10
-6.10547e-10
-6.32502e-10
-6.54473e-10
-6.76432e-10
-6.98392e-10
-7.20345e-10
-7.42317e-10
-7.64279e-10
-7.86236e-10
-8.08193e-10
-8.30154e-10
-8.52119e-10
-8.74082e-10
-8.96038e-10
-9.17999e-10
-9.39963e-10
-9.61919e-10
-9.83888e-10
-1.00584e-09
-1.02781e-09
-1.04977e-09
-1.07174e-09
-1.0937e-09
-1.11567e-09
-1.13763e-09
-1.1596e-09
-1.18157e-09
-1.20356e-09
-1.22555e-09
-1.24755e-09
-1.26955e-09
-1.2916e-09
-1.31368e-09
-1.33581e-09
-1.358e-09
-1.38028e-09
-1.40272e-09
-1.42535e-09
-1.44826e-09
-1.47158e-09
-1.49546e-09
-1.52016e-09
-1.54598e-09
-1.57346e-09
-1.60315e-09
-1.63601e-09
-1.67328e-09
-1.71652e-09
-1.76856e-09
-1.8322e-09
-1.91278e-09
-2.01412e-09
-2.13426e-09
1.44984e-10
-2.30332e-11
-3.33122e-11
-5.75969e-11
-8.14533e-11
-1.04409e-10
-1.26882e-10
-1.49123e-10
-1.71226e-10
-1.93269e-10
-2.15274e-10
-2.37244e-10
-2.59208e-10
-2.81177e-10
-3.03122e-10
-3.25086e-10
-3.47048e-10
-3.68995e-10
-3.90951e-10
-4.12916e-10
-4.34873e-10
-4.56824e-10
-4.78789e-10
-5.00758e-10
-5.22714e-10
-5.44675e-10
-5.66631e-10
-5.88592e-10
-6.10557e-10
-6.32526e-10
-6.54473e-10
-6.76436e-10
-6.98399e-10
-7.20364e-10
-7.42318e-10
-7.6427e-10
-7.86237e-10
-8.0821e-10
-8.30163e-10
-8.52119e-10
-8.74089e-10
-8.96049e-10
-9.18004e-10
-9.39963e-10
-9.61925e-10
-9.83894e-10
-1.00586e-09
-1.02781e-09
-1.04977e-09
-1.07174e-09
-1.09372e-09
-1.11567e-09
-1.13764e-09
-1.1596e-09
-1.18158e-09
-1.20356e-09
-1.22555e-09
-1.24755e-09
-1.26957e-09
-1.29162e-09
-1.31369e-09
-1.33581e-09
-1.35801e-09
-1.38031e-09
-1.40277e-09
-1.42542e-09
-1.44838e-09
-1.47173e-09
-1.4957e-09
-1.52053e-09
-1.54654e-09
-1.57413e-09
-1.60412e-09
-1.63742e-09
-1.67526e-09
-1.71958e-09
-1.77247e-09
-1.83715e-09
-1.91852e-09
-2.02091e-09
-2.13551e-09
-2.2399e-09
1.30932e-10
-1.23594e-11
-3.40039e-11
-5.80229e-11
-8.16349e-11
-1.04488e-10
-1.26925e-10
-1.49131e-10
-1.71237e-10
-1.93277e-10
-2.15269e-10
-2.37257e-10
-2.59212e-10
-2.8116e-10
-3.03136e-10
-3.25079e-10
-3.47025e-10
-3.68993e-10
-3.90952e-10
-4.12903e-10
-4.34866e-10
-4.56834e-10
-4.78787e-10
-5.00737e-10
-5.22708e-10
-5.44663e-10
-5.66634e-10
-5.88591e-10
-6.10545e-10
-6.32499e-10
-6.54476e-10
-6.76436e-10
-6.98384e-10
-7.20349e-10
-7.42314e-10
-7.64286e-10
-7.86243e-10
-8.08179e-10
-8.30157e-10
-8.52125e-10
-8.7408e-10
-8.96031e-10
-9.18005e-10
-9.39966e-10
-9.61923e-10
-9.83882e-10
-1.00584e-09
-1.02781e-09
-1.04977e-09
-1.07174e-09
-1.09369e-09
-1.11567e-09
-1.13763e-09
-1.1596e-09
-1.18157e-09
-1.20355e-09
-1.22555e-09
-1.24755e-09
-1.26955e-09
-1.2916e-09
-1.31368e-09
-1.33583e-09
-1.35802e-09
-1.38032e-09
-1.40279e-09
-1.42547e-09
-1.44843e-09
-1.47185e-09
-1.49586e-09
-1.52075e-09
-1.54684e-09
-1.57469e-09
-1.60493e-09
-1.63855e-09
-1.67687e-09
-1.72179e-09
-1.77567e-09
-1.84148e-09
-1.92394e-09
-2.02754e-09
-2.15504e-09
-2.25217e-09
-2.48505e-09
1.47758e-10
-1.34465e-11
-3.49564e-11
-5.84536e-11
-8.18165e-11
-1.04572e-10
-1.26979e-10
-1.49177e-10
-1.71259e-10
-1.9329e-10
-2.15285e-10
-2.37262e-10
-2.59219e-10
-2.81168e-10
-3.03122e-10
-3.25094e-10
-3.47051e-10
-3.68994e-10
-3.90955e-10
-4.1292e-10
-4.34872e-10
-4.56812e-10
-4.78786e-10
-5.00767e-10
-5.22713e-10
-5.44672e-10
-5.6663e-10
-5.88584e-10
-6.10563e-10
-6.32527e-10
-6.54469e-10
-6.76438e-10
-6.984e-10
-7.20365e-10
-7.42316e-10
-7.64272e-10
-7.86229e-10
-8.0822e-10
-8.30167e-10
-8.52109e-10
-8.7409e-10
-8.96051e-10
-9.17998e-10
-9.39965e-10
-9.61921e-10
-9.83894e-10
-1.00585e-09
-1.02781e-09
-1.04977e-09
-1.07173e-09
-1.09371e-09
-1.11566e-09
-1.13764e-09
-1.1596e-09
-1.18158e-09
-1.20355e-09
-1.22555e-09
-1.24754e-09
-1.26958e-09
-1.29162e-09
-1.3137e-09
-1.33581e-09
-1.35802e-09
-1.38035e-09
-1.40281e-09
-1.42552e-09
-1.44851e-09
-1.47194e-09
-1.49603e-09
-1.52098e-09
-1.54725e-09
-1.5752e-09
-1.60567e-09
-1.63966e-09
-1.67845e-09
-1.72392e-09
-1.77867e-09
-1.84545e-09
-1.92886e-09
-2.03321e-09
-2.16106e-09
-2.20751e-09
-2.51484e-09
1.0646e-10
-9.28238e-12
-3.52412e-11
-5.88284e-11
-8.20023e-11
-1.04666e-10
-1.2703e-10
-1.49219e-10
-1.71279e-10
-1.93314e-10
-2.15301e-10
-2.37271e-10
-2.59219e-10
-2.81181e-10
-3.03138e-10
-3.25083e-10
-3.47027e-10
-3.68994e-10
-3.90958e-10
-4.12909e-10
-4.34867e-10
-4.56846e-10
-4.78787e-10
-5.00739e-10
-5.22718e-10
-5.44667e-10
-5.66633e-10
-5.88592e-10
-6.10546e-10
-6.32507e-10
-6.54479e-10
-6.76434e-10
-6.98397e-10
-7.2035e-10
-7.42314e-10
-7.64283e-10
-7.86252e-10
-8.08188e-10
-8.30163e-10
-8.5213e-10
-8.74085e-10
-8.96035e-10
-9.18013e-10
-9.39966e-10
-9.61923e-10
-9.83889e-10
-1.00585e-09
-1.0278e-09
-1.04978e-09
-1.07174e-09
-1.09369e-09
-1.11567e-09
-1.13763e-09
-1.1596e-09
-1.18157e-09
-1.20357e-09
-1.22554e-09
-1.24754e-09
-1.26955e-09
-1.2916e-09
-1.31368e-09
-1.33583e-09
-1.35804e-09
-1.38035e-09
-1.40285e-09
-1.42553e-09
-1.44854e-09
-1.47203e-09
-1.49614e-09
-1.52118e-09
-1.54746e-09
-1.57565e-09
-1.6063e-09
-1.64052e-09
-1.67974e-09
-1.72569e-09
-1.78082e-09
-1.84869e-09
-1.93321e-09
-2.03931e-09
-2.17145e-09
-2.25946e-09
-2.52861e-09
8.89917e-11
-1.21936e-11
-3.66973e-11
-5.93393e-11
-8.22312e-11
-1.04795e-10
-1.27137e-10
-1.49262e-10
-1.71341e-10
-1.93338e-10
-2.1532e-10
-2.37302e-10
-2.59242e-10
-2.81172e-10
-3.0314e-10
-3.2509e-10
-3.47062e-10
-3.69011e-10
-3.90961e-10
-4.12919e-10
-4.34878e-10
-4.56809e-10
-4.78813e-10
-5.00779e-10
-5.22706e-10
-5.44673e-10
-5.66641e-10
-5.88586e-10
-6.10575e-10
-6.32526e-10
-6.5448e-10
-6.76439e-10
-6.98415e-10
-7.2037e-10
-7.42319e-10
-7.64273e-10
-7.8625e-10
-8.08219e-10
-8.30174e-10
-8.52118e-10
-8.74108e-10
-8.96058e-10
-9.17997e-10
-9.39982e-10
-9.61933e-10
-9.83899e-10
-1.00586e-09
-1.02782e-09
-1.04976e-09
-1.07175e-09
-1.0937e-09
-1.11566e-09
-1.13763e-09
-1.1596e-09
-1.18158e-09
-1.20355e-09
-1.22556e-09
-1.24755e-09
-1.26957e-09
-1.29162e-09
-1.3137e-09
-1.33582e-09
-1.35804e-09
-1.38036e-09
-1.40285e-09
-1.42557e-09
-1.4486e-09
-1.47211e-09
-1.49625e-09
-1.52134e-09
-1.54775e-09
-1.57596e-09
-1.60688e-09
-1.64137e-09
-1.68094e-09
-1.72741e-09
-1.78319e-09
-1.85168e-09
-1.93687e-09
-2.04312e-09
-2.1777e-09
-2.31634e-09
-2.53197e-09
8.0395e-11
-1.58188e-11
-3.78215e-11
-5.96567e-11
-8.23871e-11
-1.04872e-10
-1.27174e-10
-1.49288e-10
-1.71348e-10
-1.93353e-10
-2.15331e-10
-2.37278e-10
-2.59237e-10
-2.81196e-10
-3.03147e-10
-3.25092e-10
-3.47034e-10
-3.68993e-10
-3.90961e-10
-4.12912e-10
-4.34864e-10
-4.56842e-10
-4.78773e-10
-5.00737e-10
-5.22728e-10
-5.44669e-10
-5.66628e-10
-5.88596e-10
-6.10542e-10
-6.32515e-10
-6.54476e-10
-6.76441e-10
-6.98388e-10
-7.20352e-10
-7.42319e-10
-7.64281e-10
-7.86243e-10
-8.08204e-10
-8.3017e-10
-8.52117e-10
-8.74086e-10
-8.96049e-10
-9.18011e-10
-9.39973e-10
-9.6191e-10
-9.8389e-10
-1.00585e-09
-1.02781e-09
-1.04979e-09
-1.07173e-09
-1.0937e-09
-1.11567e-09
-1.13763e-09
-1.1596e-09
-1.18156e-09
-1.20356e-09
-1.22552e-09
-1.24752e-09
-1.26955e-09
-1.2916e-09
-1.31369e-09
-1.33582e-09
-1.35803e-09
-1.38036e-09
-1.40285e-09
-1.42556e-09
-1.44862e-09
-1.47212e-09
-1.49632e-09
-1.52145e-09
-1.54792e-09
-1.57627e-09
-1.60729e-09
-1.64198e-09
-1.68181e-09
-1.72863e-09
-1.78489e-09
-1.85395e-09
-1.93957e-09
-2.04557e-09
-2.17937e-09
-2.33875e-09
-2.53683e-09
5.2066e-11
-1.44138e-11
-3.7225e-11
-5.97937e-11
-8.24715e-11
-1.04938e-10
-1.27204e-10
-1.49318e-10
-1.71365e-10
-1.93368e-10
-2.1534e-10
-2.37304e-10
-2.59259e-10
-2.81191e-10
-3.03136e-10
-3.25102e-10
-3.47058e-10
-3.69017e-10
-3.90962e-10
-4.12916e-10
-4.34874e-10
-4.56832e-10
-4.78815e-10
-5.00768e-10
-5.22701e-10
-5.44674e-10
-5.6664e-10
-5.8859e-10
-6.10576e-10
-6.3252e-10
-6.54486e-10
-6.76431e-10
-6.98416e-10
-7.20369e-10
-7.42313e-10
-7.64281e-10
-7.86252e-10
-8.08201e-10
-8.30165e-10
-8.52131e-10
-8.74086e-10
-8.96044e-10
-9.18e-10
-9.39974e-10
-9.61935e-10
-9.83898e-10
-1.00586e-09
-1.02782e-09
-1.04976e-09
-1.07174e-09
-1.09371e-09
-1.11567e-09
-1.13762e-09
-1.15959e-09
-1.18157e-09
-1.20355e-09
-1.22556e-09
-1.24754e-09
-1.26956e-09
-1.2916e-09
-1.31367e-09
-1.33582e-09
-1.35804e-09
-1.38036e-09
-1.40285e-09
-1.42559e-09
-1.44862e-09
-1.47219e-09
-1.49636e-09
-1.52154e-09
-1.54804e-09
-1.57649e-09
-1.60759e-09
-1.64243e-09
-1.68245e-09
-1.72956e-09
-1.78618e-09
-1.85563e-09
-1.94181e-09
-2.04914e-09
-2.18434e-09
-2.38973e-09
-2.54523e-09
4.98294e-11
-1.71973e-11
-3.80798e-11
-5.99372e-11
-8.25446e-11
-1.04976e-10
-1.27235e-10
-1.49318e-10
-1.71376e-10
-1.9337e-10
-2.15348e-10
-2.37273e-10
-2.59246e-10
-2.81195e-10
-3.03166e-10
-3.25083e-10
-3.47057e-10
-3.68988e-10
-3.90957e-10
-4.12919e-10
-4.34871e-10
-4.56826e-10
-4.78777e-10
-5.00744e-10
-5.22729e-10
-5.44675e-10
-5.66621e-10
-5.88599e-10
-6.10544e-10
-6.3252e-10
-6.54478e-10
-6.76443e-10
-6.98384e-10
-7.20358e-10
-7.42331e-10
-7.64266e-10
-7.86246e-10
-8.08199e-10
-8.30162e-10
-8.52124e-10
-8.74084e-10
-8.96041e-10
-9.18003e-10
-9.39974e-10
-9.61926e-10
-9.83891e-10
-1.00584e-09
-1.0278e-09
-1.04979e-09
-1.07173e-09
-1.09369e-09
-1.11565e-09
-1.13764e-09
-1.1596e-09
-1.18157e-09
-1.20354e-09
-1.22551e-09
-1.24751e-09
-1.26954e-09
-1.29159e-09
-1.31369e-09
-1.33581e-09
-1.35802e-09
-1.38035e-09
-1.40284e-09
-1.42556e-09
-1.44863e-09
-1.47215e-09
-1.49639e-09
-1.52155e-09
-1.54812e-09
-1.57658e-09
-1.60777e-09
-1.64271e-09
-1.68285e-09
-1.73013e-09
-1.78703e-09
-1.85675e-09
-1.9432e-09
-2.0502e-09
-2.18447e-09
-2.39195e-09
-2.55129e-09
4.89051e-11
-1.5523e-11
-3.74089e-11
-5.9937e-11
-8.25898e-11
-1.05002e-10
-1.27237e-10
-1.49359e-10
-1.71373e-10
-1.93381e-10
-2.15328e-10
-2.37311e-10
-2.59263e-10
-2.81193e-10
-3.03127e-10
-3.25104e-10
-3.47052e-10
-3.69019e-10
-3.90952e-10
-4.12912e-10
-4.34871e-10
-4.56852e-10
-4.78809e-10
-5.00752e-10
-5.22703e-10
-5.4466e-10
-5.6665e-10
-5.88593e-10
-6.10569e-10
-6.32516e-10
-6.54478e-10
-6.76432e-10
-6.98417e-10
-7.20368e-10
-7.42308e-10
-7.64277e-10
-7.86246e-10
-8.08197e-10
-8.3016e-10
-8.52119e-10
-8.74082e-10
-8.9604e-10
-9.18003e-10
-9.39967e-10
-9.61917e-10
-9.83889e-10
-1.00585e-09
-1.02782e-09
-1.04976e-09
-1.07173e-09
-1.09371e-09
-1.11567e-09
-1.13762e-09
-1.15958e-09
-1.18155e-09
-1.20355e-09
-1.22555e-09
-1.24753e-09
-1.26955e-09
-1.29158e-09
-1.31364e-09
-1.3358e-09
-1.35801e-09
-1.38034e-09
-1.40282e-09
-1.42557e-09
-1.4486e-09
-1.47216e-09
-1.49636e-09
-1.52156e-09
-1.54809e-09
-1.57661e-09
-1.60782e-09
-1.64282e-09
-1.68302e-09
-1.7304e-09
-1.78739e-09
-1.8573e-09
-1.94396e-09
-2.05184e-09
-2.18654e-09
-2.39462e-09
-2.55516e-09
4.80202e-11
-1.66025e-11
-3.78025e-11
-5.99978e-11
-8.25988e-11
-1.05024e-10
-1.27254e-10
-1.49325e-10
-1.71382e-10
-1.93381e-10
-2.15354e-10
-2.37287e-10
-2.59249e-10
-2.81201e-10
-3.03165e-10
-3.2508e-10
-3.47066e-10
-3.68987e-10
-3.90966e-10
-4.12925e-10
-4.34869e-10
-4.56814e-10
-4.78779e-10
-5.0076e-10
-5.22727e-10
-5.44687e-10
-5.66617e-10
-5.886e-10
-6.10557e-10
-6.32523e-10
-6.54484e-10
-6.76439e-10
-6.98385e-10
-7.20354e-10
-7.42332e-10
-7.64269e-10
-7.86255e-10
-8.0819e-10
-8.30156e-10
-8.52117e-10
-8.74082e-10
-8.96031e-10
-9.17999e-10
-9.39966e-10
-9.61928e-10
-9.83886e-10
-1.00584e-09
-1.0278e-09
-1.04979e-09
-1.07174e-09
-1.09368e-09
-1.11566e-09
-1.13764e-09
-1.1596e-09
-1.18158e-09
-1.20353e-09
-1.2255e-09
-1.24751e-09
-1.26953e-09
-1.29158e-09
-1.31367e-09
-1.33578e-09
-1.35799e-09
-1.38031e-09
-1.4028e-09
-1.42552e-09
-1.44858e-09
-1.47209e-09
-1.49632e-09
-1.52148e-09
-1.54804e-09
-1.57653e-09
-1.60775e-09
-1.6427e-09
-1.68293e-09
-1.73031e-09
-1.78736e-09
-1.85723e-09
-1.94391e-09
-2.05156e-09
-2.18631e-09
-2.39479e-09
-2.55651e-09
4.79881e-11
-1.65971e-11
-3.78026e-11
-5.99837e-11
-8.26044e-11
-1.05013e-10
-1.27251e-10
-1.49357e-10
-1.71378e-10
-1.93379e-10
-2.15334e-10
-2.37302e-10
-2.59264e-10
-2.8119e-10
-3.03125e-10
-3.25092e-10
-3.47054e-10
-3.69013e-10
-3.90936e-10
-4.12905e-10
-4.34878e-10
-4.56859e-10
-4.78806e-10
-5.00744e-10
-5.22706e-10
-5.44657e-10
-5.66644e-10
-5.88595e-10
-6.10554e-10
-6.32512e-10
-6.54468e-10
-6.76439e-10
-6.98409e-10
-7.20354e-10
-7.42317e-10
-7.64287e-10
-7.86226e-10
-8.08198e-10
-8.30154e-10
-8.52123e-10
-8.74073e-10
-8.96044e-10
-9.17996e-10
-9.39968e-10
-9.61923e-10
-9.83888e-10
-1.00585e-09
-1.02782e-09
-1.04976e-09
-1.07171e-09
-1.09371e-09
-1.11566e-09
-1.13761e-09
-1.15958e-09
-1.18154e-09
-1.20354e-09
-1.22554e-09
-1.24751e-09
-1.26953e-09
-1.29156e-09
-1.31362e-09
-1.33577e-09
-1.35797e-09
-1.3803e-09
-1.40277e-09
-1.42549e-09
-1.44851e-09
-1.47204e-09
-1.49623e-09
-1.52139e-09
-1.54791e-09
-1.57635e-09
-1.60753e-09
-1.64245e-09
-1.6826e-09
-1.72988e-09
-1.78681e-09
-1.8566e-09
-1.94313e-09
-2.05058e-09
-2.18521e-09
-2.39363e-09
-2.55565e-09
4.88793e-11
-1.56781e-11
-3.74424e-11
-5.99481e-11
-8.25775e-11
-1.05015e-10
-1.27232e-10
-1.49343e-10
-1.7136e-10
-1.93375e-10
-2.15347e-10
-2.37295e-10
-2.59248e-10
-2.81213e-10
-3.03149e-10
-3.25085e-10
-3.47067e-10
-3.68997e-10
-3.90962e-10
-4.12928e-10
-4.34867e-10
-4.56816e-10
-4.78781e-10
-5.0076e-10
-5.22726e-10
-5.44687e-10
-5.66624e-10
-5.88595e-10
-6.10551e-10
-6.32526e-10
-6.54494e-10
-6.76441e-10
-6.98391e-10
-7.2035e-10
-7.42317e-10
-7.64279e-10
-7.86265e-10
-8.08196e-10
-8.30154e-10
-8.52111e-10
-8.74083e-10
-8.96043e-10
-9.17999e-10
-9.39965e-10
-9.61924e-10
-9.83889e-10
-1.00584e-09
-1.0278e-09
-1.04978e-09
-1.07175e-09
-1.09368e-09
-1.11565e-09
-1.13764e-09
-1.15959e-09
-1.18157e-09
-1.20353e-09
-1.22549e-09
-1.24751e-09
-1.26951e-09
-1.29155e-09
-1.31364e-09
-1.33574e-09
-1.35795e-09
-1.38025e-09
-1.40273e-09
-1.42543e-09
-1.44846e-09
-1.47195e-09
-1.49612e-09
-1.52124e-09
-1.54772e-09
-1.5761e-09
-1.60719e-09
-1.64199e-09
-1.682e-09
-1.7291e-09
-1.78585e-09
-1.85536e-09
-1.94161e-09
-2.04907e-09
-2.18358e-09
-2.39119e-09
-2.55302e-09
4.9811e-11
-1.71243e-11
-3.80768e-11
-5.99301e-11
-8.25355e-11
-1.04974e-10
-1.27222e-10
-1.49329e-10
-1.71365e-10
-1.93364e-10
-2.15345e-10
-2.37283e-10
-2.59252e-10
-2.8118e-10
-3.03131e-10
-3.25084e-10
-3.4705e-10
-3.69006e-10
-3.90937e-10
-4.12902e-10
-4.34873e-10
-4.56849e-10
-4.788e-10
-5.00747e-10
-5.22702e-10
-5.44661e-10
-5.66637e-10
-5.88599e-10
-6.1056e-10
-6.32509e-10
-6.54452e-10
-6.76441e-10
-6.98396e-10
-7.20374e-10
-7.42313e-10
-7.64281e-10
-7.86238e-10
-8.08199e-10
-8.30152e-10
-8.52129e-10
-8.7408e-10