/*--------------------------------*- C++ -*----------------------------------*\
| =========                 |                                                 |
| \\      /  F ield         | OpenFOAM: The Open Source CFD Toolbox           |
|  \\    /   O peration     | Version:  v1906                                 |
|   \\  /    A nd           | Web:      www.OpenFOAM.com                      |
|    \\/     M anipulation  |                                                 |
\*---------------------------------------------------------------------------*/
FoamFile
{
    version     2.0;
    format      ascii;
    class       volScalarField;
    location    "45.5";
    object      p;
}
// * * * * * * * * * * * * * * * * * * * * * * * * * * * * * * * * * * * * * //

dimensions      [0 2 -2 0 0 0 0];


internalField   nonuniform List<scalar> 
243374
(
-1.73837e-16
-3.92977e-11
-5.89965e-11
-8.19712e-11
-1.04623e-10
-1.26959e-10
-1.49151e-10
-1.71229e-10
-1.93266e-10
-2.15259e-10
-2.37229e-10
-2.59205e-10
-2.81175e-10
-3.03133e-10
-3.25097e-10
-3.47053e-10
-3.69026e-10
-3.90996e-10
-4.12957e-10
-4.34934e-10
-4.56916e-10
-4.78869e-10
-5.00835e-10
-5.2282e-10
-5.44783e-10
-5.66756e-10
-5.88729e-10
-6.10695e-10
-6.32667e-10
-6.54642e-10
-6.76614e-10
-6.98582e-10
-7.20554e-10
-7.42528e-10
-7.64503e-10
-7.86473e-10
-8.08434e-10
-8.30413e-10
-8.5239e-10
-8.74353e-10
-8.96322e-10
-9.18304e-10
-9.40265e-10
-9.62239e-10
-9.84208e-10
-1.00618e-09
-1.02815e-09
-1.05013e-09
-1.0721e-09
-1.09407e-09
-1.11605e-09
-1.13802e-09
-1.16e-09
-1.18198e-09
-1.20397e-09
-1.22596e-09
-1.24796e-09
-1.26998e-09
-1.29202e-09
-1.31409e-09
-1.33621e-09
-1.35839e-09
-1.38066e-09
-1.40305e-09
-1.42563e-09
-1.44848e-09
-1.47171e-09
-1.49548e-09
-1.52e-09
-1.54559e-09
-1.57276e-09
-1.60201e-09
-1.63431e-09
-1.67062e-09
-1.71264e-09
-1.76268e-09
-1.82324e-09
-1.89748e-09
-1.98329e-09
-2.12073e-09
-1.29225e-11
-4.00776e-11
-5.93691e-11
-8.2142e-11
-1.04715e-10
-1.27023e-10
-1.49196e-10
-1.71267e-10
-1.93278e-10
-2.15274e-10
-2.37251e-10
-2.59216e-10
-2.81173e-10
-3.03136e-10
-3.251e-10
-3.47071e-10
-3.69038e-10
-3.90999e-10
-4.12978e-10
-4.34937e-10
-4.56905e-10
-4.78896e-10
-5.00859e-10
-5.22812e-10
-5.44795e-10
-5.66766e-10
-5.88734e-10
-6.10707e-10
-6.32676e-10
-6.54645e-10
-6.7662e-10
-6.98594e-10
-7.20562e-10
-7.42533e-10
-7.64509e-10
-7.86476e-10
-8.08453e-10
-8.30419e-10
-8.52391e-10
-8.74365e-10
-8.96334e-10
-9.18305e-10
-9.40277e-10
-9.62251e-10
-9.84211e-10
-1.00619e-09
-1.02817e-09
-1.05013e-09
-1.07211e-09
-1.09409e-09
-1.11605e-09
-1.13803e-09
-1.16e-09
-1.18199e-09
-1.20397e-09
-1.22597e-09
-1.24797e-09
-1.26999e-09
-1.29203e-09
-1.3141e-09
-1.33621e-09
-1.35839e-09
-1.38066e-09
-1.40307e-09
-1.42565e-09
-1.44851e-09
-1.47177e-09
-1.49555e-09
-1.52014e-09
-1.54584e-09
-1.57304e-09
-1.60245e-09
-1.63495e-09
-1.67152e-09
-1.71404e-09
-1.76447e-09
-1.82551e-09
-1.90049e-09
-1.98834e-09
-2.11189e-09
-2.97806e-11
-4.02565e-11
-5.96129e-11
-8.22357e-11
-1.04757e-10
-1.27038e-10
-1.49188e-10
-1.71263e-10
-1.93289e-10
-2.15273e-10
-2.37237e-10
-2.59209e-10
-2.81174e-10
-3.03136e-10
-3.25095e-10
-3.47058e-10
-3.69019e-10
-3.90998e-10
-4.12956e-10
-4.34932e-10
-4.56912e-10
-4.78854e-10
-5.00834e-10
-5.22831e-10
-5.44785e-10
-5.66754e-10
-5.88731e-10
-6.10692e-10
-6.32666e-10
-6.54635e-10
-6.76605e-10
-6.98579e-10
-7.20559e-10
-7.42532e-10
-7.64494e-10
-7.86469e-10
-8.08434e-10
-8.30413e-10
-8.52391e-10
-8.74351e-10
-8.96329e-10
-9.18303e-10
-9.40268e-10
-9.62232e-10
-9.84215e-10
-1.00618e-09
-1.02815e-09
-1.05014e-09
-1.07209e-09
-1.09406e-09
-1.11605e-09
-1.13802e-09
-1.16e-09
-1.18198e-09
-1.20396e-09
-1.22595e-09
-1.24796e-09
-1.26996e-09
-1.292e-09
-1.31409e-09
-1.3362e-09
-1.35838e-09
-1.38065e-09
-1.40304e-09
-1.42565e-09
-1.44852e-09
-1.47177e-09
-1.4956e-09
-1.52019e-09
-1.54589e-09
-1.57322e-09
-1.60273e-09
-1.63525e-09
-1.67213e-09
-1.71491e-09
-1.76569e-09
-1.82714e-09
-1.90248e-09
-1.99146e-09
-2.09817e-09
1.26575e-10
-2.25576e-11
-3.78226e-11
-5.96365e-11
-8.229e-11
-1.04794e-10
-1.27057e-10
-1.49243e-10
-1.71278e-10
-1.93284e-10
-2.15278e-10
-2.37264e-10
-2.59213e-10
-2.81181e-10
-3.03131e-10
-3.25101e-10
-3.4706e-10
-3.69043e-10
-3.9099e-10
-4.1298e-10
-4.34949e-10
-4.56904e-10
-4.78898e-10
-5.00852e-10
-5.22799e-10
-5.44789e-10
-5.6676e-10
-5.88733e-10
-6.1071e-10
-6.32672e-10
-6.54651e-10
-6.76627e-10
-6.9859e-10
-7.20549e-10
-7.42522e-10
-7.64516e-10
-7.86467e-10
-8.08451e-10
-8.30413e-10
-8.52378e-10
-8.74352e-10
-8.96329e-10
-9.18299e-10
-9.40268e-10
-9.62259e-10
-9.84202e-10
-1.00619e-09
-1.02817e-09
-1.05011e-09
-1.07211e-09
-1.09409e-09
-1.11604e-09
-1.13801e-09
-1.15998e-09
-1.18198e-09
-1.20396e-09
-1.22598e-09
-1.24796e-09
-1.26999e-09
-1.29202e-09
-1.31407e-09
-1.33619e-09
-1.35837e-09
-1.38064e-09
-1.40307e-09
-1.42566e-09
-1.44852e-09
-1.47181e-09
-1.49562e-09
-1.52026e-09
-1.54601e-09
-1.57336e-09
-1.60294e-09
-1.63566e-09
-1.67265e-09
-1.71562e-09
-1.76666e-09
-1.82849e-09
-1.90434e-09
-1.99687e-09
-2.10508e-09
-2.2246e-09
1.16008e-10
-2.82053e-11
-3.85768e-11
-5.96841e-11
-8.2329e-11
-1.04819e-10
-1.27075e-10
-1.49204e-10
-1.71289e-10
-1.93298e-10
-2.15282e-10
-2.37252e-10
-2.59203e-10
-2.81168e-10
-3.03148e-10
-3.25095e-10
-3.47074e-10
-3.69015e-10
-3.91005e-10
-4.12954e-10
-4.3492e-10
-4.56896e-10
-4.78848e-10
-5.00844e-10
-5.22839e-10
-5.44789e-10
-5.66763e-10
-5.88727e-10
-6.10689e-10
-6.32671e-10
-6.54634e-10
-6.76606e-10
-6.98573e-10
-7.20556e-10
-7.4254e-10
-7.6449e-10
-7.86475e-10
-8.08438e-10
-8.30403e-10
-8.52379e-10
-8.74354e-10
-8.96322e-10
-9.18293e-10
-9.40263e-10
-9.62233e-10
-9.84218e-10
-1.00618e-09
-1.02814e-09
-1.05015e-09
-1.07209e-09
-1.09405e-09
-1.11604e-09
-1.13803e-09
-1.16001e-09
-1.18198e-09
-1.20395e-09
-1.22593e-09
-1.24795e-09
-1.26995e-09
-1.29199e-09
-1.31409e-09
-1.33618e-09
-1.35837e-09
-1.38064e-09
-1.40303e-09
-1.42563e-09
-1.44852e-09
-1.47177e-09
-1.49563e-09
-1.52027e-09
-1.54604e-09
-1.57342e-09
-1.60307e-09
-1.63582e-09
-1.67297e-09
-1.71609e-09
-1.76731e-09
-1.82937e-09
-1.90554e-09
-1.99788e-09
-2.10293e-09
-2.24301e-09
-2.46878e-09
1.10683e-10
-2.17315e-11
-3.72022e-11
-5.96089e-11
-8.23521e-11
-1.04811e-10
-1.27086e-10
-1.49258e-10
-1.71284e-10
-1.93296e-10
-2.1528e-10
-2.37253e-10
-2.59223e-10
-2.81179e-10
-3.03123e-10
-3.25111e-10
-3.47045e-10
-3.69042e-10
-3.90984e-10
-4.12969e-10
-4.34952e-10
-4.56915e-10
-4.789e-10
-5.00847e-10
-5.22792e-10
-5.44789e-10
-5.66752e-10
-5.88728e-10
-6.10704e-10
-6.32665e-10
-6.54642e-10
-6.76621e-10
-6.98603e-10
-7.20557e-10
-7.42512e-10
-7.645e-10
-7.86461e-10
-8.08435e-10
-8.30407e-10
-8.52379e-10
-8.74343e-10
-8.96325e-10
-9.18293e-10
-9.40269e-10
-9.62237e-10
-9.84207e-10
-1.00618e-09
-1.02817e-09
-1.0501e-09
-1.0721e-09
-1.09409e-09
-1.11605e-09
-1.138e-09
-1.15997e-09
-1.18197e-09
-1.20396e-09
-1.22596e-09
-1.24795e-09
-1.26997e-09
-1.29201e-09
-1.31405e-09
-1.33618e-09
-1.35835e-09
-1.38062e-09
-1.40303e-09
-1.42563e-09
-1.44849e-09
-1.47177e-09
-1.4956e-09
-1.52025e-09
-1.54603e-09
-1.57343e-09
-1.60309e-09
-1.63592e-09
-1.67309e-09
-1.71627e-09
-1.7676e-09
-1.82979e-09
-1.90619e-09
-2.00016e-09
-2.11062e-09
-2.25173e-09
-2.46865e-09
1.06169e-10
-2.50067e-11
-3.77239e-11
-5.96615e-11
-8.2353e-11
-1.04849e-10
-1.27084e-10
-1.49229e-10
-1.71295e-10
-1.9329e-10
-2.15296e-10
-2.37253e-10
-2.59194e-10
-2.81184e-10
-3.03151e-10
-3.2509e-10
-3.47071e-10
-3.69023e-10
-3.91015e-10
-4.1297e-10
-4.3492e-10
-4.56889e-10
-4.78854e-10
-5.00845e-10
-5.22829e-10
-5.44793e-10
-5.66764e-10
-5.88727e-10
-6.10701e-10
-6.32675e-10
-6.5464e-10
-6.76606e-10
-6.98565e-10
-7.20548e-10
-7.42545e-10
-7.64504e-10
-7.86463e-10
-8.08434e-10
-8.30401e-10
-8.52365e-10
-8.74345e-10
-8.96301e-10
-9.1829e-10
-9.40245e-10
-9.62235e-10
-9.84204e-10
-1.00618e-09
-1.02814e-09
-1.05015e-09
-1.0721e-09
-1.09406e-09
-1.11603e-09
-1.13802e-09
-1.16001e-09
-1.18198e-09
-1.20394e-09
-1.22593e-09
-1.24795e-09
-1.26994e-09
-1.29198e-09
-1.31406e-09
-1.33616e-09
-1.35834e-09
-1.3806e-09
-1.403e-09
-1.42559e-09
-1.44847e-09
-1.47172e-09
-1.49557e-09
-1.52019e-09
-1.54598e-09
-1.57336e-09
-1.60301e-09
-1.63581e-09
-1.67301e-09
-1.7162e-09
-1.76754e-09
-1.82974e-09
-1.90617e-09
-1.99979e-09
-2.10788e-09
-2.25421e-09
-2.46921e-09
1.04594e-10
-2.49655e-11
-3.77089e-11
-5.96449e-11
-8.23527e-11
-1.04814e-10
-1.27097e-10
-1.49235e-10
-1.71293e-10
-1.9331e-10
-2.15269e-10
-2.37254e-10
-2.59225e-10
-2.81161e-10
-3.03131e-10
-3.25107e-10
-3.47046e-10
-3.69027e-10
-3.90982e-10
-4.12953e-10
-4.34948e-10
-4.56917e-10
-4.78887e-10
-5.00843e-10
-5.22805e-10
-5.44774e-10
-5.66752e-10
-5.88732e-10
-6.10692e-10
-6.32659e-10
-6.5464e-10
-6.76616e-10
-6.98598e-10
-7.20565e-10
-7.42501e-10
-7.64499e-10
-7.86461e-10
-8.08437e-10
-8.30411e-10
-8.52385e-10
-8.74346e-10
-8.96325e-10
-9.18289e-10
-9.40266e-10
-9.62236e-10
-9.84201e-10
-1.00619e-09
-1.02816e-09
-1.0501e-09
-1.07208e-09
-1.09407e-09
-1.11604e-09
-1.138e-09
-1.15997e-09
-1.18196e-09
-1.20396e-09
-1.22594e-09
-1.24793e-09
-1.26995e-09
-1.29198e-09
-1.31403e-09
-1.33615e-09
-1.35832e-09
-1.38058e-09
-1.40298e-09
-1.42556e-09
-1.44842e-09
-1.47167e-09
-1.49549e-09
-1.52011e-09
-1.54585e-09
-1.57322e-09
-1.60283e-09
-1.63559e-09
-1.67273e-09
-1.71584e-09
-1.76709e-09
-1.8292e-09
-1.90552e-09
-1.99893e-09
-2.10691e-09
-2.25389e-09
-2.4687e-09
1.05229e-10
-2.19724e-11
-3.72517e-11
-5.96278e-11
-8.23484e-11
-1.04841e-10
-1.27073e-10
-1.4924e-10
-1.71287e-10
-1.93277e-10
-2.15295e-10
-2.37252e-10
-2.59198e-10
-2.81192e-10
-3.03136e-10
-3.251e-10
-3.47058e-10
-3.69035e-10
-3.91018e-10
-4.12978e-10
-4.34923e-10
-4.56893e-10
-4.78865e-10
-5.00845e-10
-5.22812e-10
-5.44793e-10
-5.66767e-10
-5.88723e-10
-6.1071e-10
-6.32681e-10
-6.54642e-10
-6.76609e-10
-6.98575e-10
-7.20541e-10
-7.42552e-10
-7.64495e-10
-7.86464e-10
-8.08436e-10
-8.30406e-10
-8.52361e-10
-8.74349e-10
-8.9632e-10
-9.18289e-10
-9.40259e-10
-9.62235e-10
-9.84212e-10
-1.00617e-09
-1.02815e-09
-1.05014e-09
-1.07211e-09
-1.09406e-09
-1.11603e-09
-1.13802e-09
-1.16e-09
-1.18197e-09
-1.20394e-09
-1.22593e-09
-1.24794e-09
-1.26994e-09
-1.29197e-09
-1.31404e-09
-1.33613e-09
-1.3583e-09
-1.38055e-09
-1.40293e-09
-1.42551e-09
-1.44837e-09
-1.4716e-09
-1.49539e-09
-1.51998e-09
-1.54569e-09
-1.57299e-09
-1.60254e-09
-1.63521e-09
-1.67224e-09
-1.71522e-09
-1.76627e-09
-1.82816e-09
-1.90423e-09
-1.99788e-09
-2.10835e-09
-2.25143e-09
-2.46696e-09
1.08716e-10
-2.80516e-11
-3.85657e-11
-5.96916e-11
-8.23298e-11
-1.04789e-10
-1.2709e-10
-1.492e-10
-1.71286e-10
-1.93301e-10
-2.15262e-10
-2.37255e-10
-2.59224e-10
-2.81149e-10
-3.03137e-10
-3.25095e-10
-3.47057e-10
-3.69014e-10
-3.9098e-10
-4.1295e-10
-4.3494e-10
-4.56903e-10
-4.78878e-10
-5.00842e-10
-5.22814e-10
-5.44782e-10
-5.66744e-10
-5.88729e-10
-6.10687e-10
-6.32656e-10
-6.54639e-10
-6.76609e-10
-6.98583e-10
-7.20567e-10
-7.42503e-10
-7.6449e-10
-7.86481e-10
-8.08436e-10
-8.30413e-10
-8.52382e-10
-8.74348e-10
-8.96323e-10
-9.18291e-10
-9.40265e-10
-9.62234e-10
-9.8421e-10
-1.00618e-09
-1.02815e-09
-1.05011e-09
-1.07207e-09
-1.09407e-09
-1.11603e-09
-1.13798e-09
-1.15998e-09
-1.18195e-09
-1.20395e-09
-1.22592e-09
-1.24791e-09
-1.26993e-09
-1.29195e-09
-1.31399e-09
-1.33611e-09
-1.35827e-09
-1.38052e-09
-1.40291e-09
-1.42546e-09
-1.44829e-09
-1.47151e-09
-1.49527e-09
-1.51981e-09
-1.54547e-09
-1.57271e-09
-1.60215e-09
-1.6347e-09
-1.67157e-09
-1.71431e-09
-1.76511e-09
-1.82667e-09
-1.90228e-09
-1.99427e-09
-2.09842e-09
-2.24433e-09
-2.46487e-09
1.20195e-10
-2.26558e-11
-3.784e-11
-5.96194e-11
-8.22924e-11
-1.04797e-10
-1.27056e-10
-1.4921e-10
-1.71279e-10
-1.93278e-10
-2.15289e-10
-2.37245e-10
-2.59199e-10
-2.81188e-10
-3.03134e-10
-3.25105e-10
-3.47057e-10
-3.69042e-10
-3.91018e-10
-4.1298e-10
-4.34929e-10
-4.56904e-10
-4.78871e-10
-5.00842e-10
-5.22815e-10
-5.44785e-10
-5.66771e-10
-5.88728e-10
-6.1071e-10
-6.32682e-10
-6.54647e-10
-6.76612e-10
-6.98593e-10
-7.20541e-10
-7.42545e-10
-7.64513e-10
-7.86456e-10
-8.08446e-10
-8.30422e-10
-8.52379e-10
-8.7436e-10
-8.96324e-10
-9.1831e-10
-9.40265e-10
-9.6225e-10
-9.84207e-10
-1.00618e-09
-1.02816e-09
-1.05012e-09
-1.07211e-09
-1.09406e-09
-1.11604e-09
-1.13803e-09
-1.15998e-09
-1.18196e-09
-1.20393e-09
-1.22593e-09
-1.24792e-09
-1.26992e-09
-1.29196e-09
-1.31402e-09
-1.3361e-09
-1.35826e-09
-1.38049e-09
-1.40286e-09
-1.4254e-09
-1.44821e-09
-1.47141e-09
-1.49512e-09
-1.51966e-09
-1.5452e-09
-1.57235e-09
-1.60168e-09
-1.63406e-09
-1.6707e-09
-1.71319e-09
-1.76362e-09
-1.82474e-09
-1.89979e-09
-1.99154e-09
-2.09919e-09
-2.22836e-09
-2.46611e-09
1.454e-10
-2.97823e-11
-4.02328e-11
-5.96179e-11
-8.22271e-11
-1.04739e-10
-1.27035e-10
-1.49181e-10
-1.71258e-10
-1.93278e-10
-2.15256e-10
-2.37246e-10
-2.5921e-10
-2.81149e-10
-3.03132e-10
-3.25093e-10
-3.47055e-10
-3.69017e-10
-3.90979e-10
-4.12951e-10
-4.34933e-10
-4.56898e-10
-4.78867e-10
-5.00845e-10
-5.2281e-10
-5.44785e-10
-5.66745e-10
-5.88724e-10
-6.10693e-10
-6.32658e-10
-6.54629e-10
-6.76606e-10
-6.98577e-10
-7.20564e-10
-7.42513e-10
-7.64485e-10
-7.86476e-10
-8.08441e-10
-8.30404e-10
-8.5239e-10
-8.74355e-10
-8.96322e-10
-9.18296e-10
-9.40264e-10
-9.6223e-10
-9.84208e-10
-1.00618e-09
-1.02814e-09
-1.05012e-09
-1.07208e-09
-1.09406e-09
-1.11602e-09
-1.13799e-09
-1.15998e-09
-1.18195e-09
-1.20393e-09
-1.22591e-09
-1.2479e-09
-1.26991e-09
-1.29192e-09
-1.31398e-09
-1.33606e-09
-1.35822e-09
-1.38045e-09
-1.40281e-09
-1.42533e-09
-1.44812e-09
-1.47127e-09
-1.49495e-09
-1.51933e-09
-1.5449e-09
-1.57193e-09
-1.6011e-09
-1.63328e-09
-1.66959e-09
-1.71178e-09
-1.76181e-09
-1.82233e-09
-1.89669e-09
-1.98472e-09
-2.09033e-09
-2.20492e-09
-1.28647e-11
-4.00665e-11
-5.93606e-11
-8.21299e-11
-1.0471e-10
-1.27015e-10
-1.49174e-10
-1.71253e-10
-1.93274e-10
-2.15269e-10
-2.37237e-10
-2.59202e-10
-2.81181e-10
-3.0313e-10
-3.251e-10
-3.47068e-10
-3.69034e-10
-3.91007e-10
-4.12975e-10
-4.34938e-10
-4.56905e-10
-4.78879e-10
-5.00842e-10
-5.2282e-10
-5.44785e-10
-5.66768e-10
-5.88732e-10
-6.10701e-10
-6.32678e-10
-6.54652e-10
-6.76615e-10
-6.98588e-10
-7.2055e-10
-7.42538e-10
-7.64509e-10
-7.86466e-10
-8.08443e-10
-8.30426e-10
-8.52388e-10
-8.74362e-10
-8.96337e-10
-9.18305e-10
-9.40272e-10
-9.62249e-10
-9.84209e-10
-1.00618e-09
-1.02816e-09
-1.05012e-09
-1.0721e-09
-1.09406e-09
-1.11604e-09
-1.13802e-09
-1.15998e-09
-1.18195e-09
-1.20393e-09
-1.22592e-09
-1.24791e-09
-1.26991e-09
-1.29193e-09
-1.31397e-09
-1.33606e-09
-1.3582e-09
-1.38042e-09
-1.40276e-09
-1.42527e-09
-1.44803e-09
-1.47116e-09
-1.49478e-09
-1.5192e-09
-1.54458e-09
-1.57148e-09
-1.60049e-09
-1.63244e-09
-1.66846e-09
-1.71029e-09
-1.75982e-09
-1.81971e-09
-1.89355e-09
-1.98018e-09
-2.10237e-09
7.35035e-14
-3.92832e-11
-5.89946e-11
-8.19569e-11
-1.04603e-10
-1.26947e-10
-1.49134e-10
-1.71223e-10
-1.93252e-10
-2.15246e-10
-2.37233e-10
-2.59201e-10
-2.81146e-10
-3.03126e-10
-3.25096e-10
-3.47051e-10
-3.69025e-10
-3.90986e-10
-4.12958e-10
-4.34927e-10
-4.56902e-10
-4.78863e-10
-5.00848e-10
-5.22812e-10
-5.44784e-10
-5.66751e-10
-5.88723e-10
-6.10702e-10
-6.32662e-10
-6.54625e-10
-6.76615e-10
-6.98576e-10
-7.20556e-10
-7.4252e-10
-7.6449e-10
-7.86468e-10
-8.08444e-10
-8.30407e-10
-8.52387e-10
-8.74355e-10
-8.96322e-10
-9.18298e-10
-9.40262e-10
-9.62228e-10
-9.84205e-10
-1.00618e-09
-1.02814e-09
-1.05012e-09
-1.07209e-09
-1.09406e-09
-1.11602e-09
-1.13799e-09
-1.15997e-09
-1.18194e-09
-1.20393e-09
-1.2259e-09
-1.24788e-09
-1.26989e-09
-1.2919e-09
-1.31395e-09
-1.33602e-09
-1.35814e-09
-1.38035e-09
-1.4027e-09
-1.42516e-09
-1.44791e-09
-1.47098e-09
-1.49456e-09
-1.51885e-09
-1.54416e-09
-1.5709e-09
-1.5997e-09
-1.63138e-09
-1.66711e-09
-1.70837e-09
-1.757e-09
-1.81626e-09
-1.88914e-09
-1.97356e-09
-2.10971e-09
-1.56485e-11
-3.15052e-11
-5.68988e-11
-8.11139e-11
-1.04189e-10
-1.26728e-10
-1.49003e-10
-1.71131e-10
-1.932e-10
-2.15217e-10
-2.37208e-10
-2.59187e-10
-2.81154e-10
-3.0313e-10
-3.25089e-10
-3.47055e-10
-3.69027e-10
-3.90995e-10
-4.12961e-10
-4.34929e-10
-4.56907e-10
-4.78875e-10
-5.00835e-10
-5.22816e-10
-5.44783e-10
-5.66762e-10
-5.88731e-10
-6.10698e-10
-6.32662e-10
-6.54645e-10
-6.76613e-10
-6.98584e-10
-7.20547e-10
-7.42531e-10
-7.64503e-10
-7.8647e-10
-8.08438e-10
-8.30408e-10
-8.52384e-10
-8.74358e-10
-8.96324e-10
-9.18295e-10
-9.4027e-10
-9.62236e-10
-9.84217e-10
-1.00618e-09
-1.02816e-09
-1.05013e-09
-1.0721e-09
-1.09407e-09
-1.11605e-09
-1.13803e-09
-1.16001e-09
-1.18198e-09
-1.20398e-09
-1.22597e-09
-1.24798e-09
-1.26998e-09
-1.29202e-09
-1.31409e-09
-1.33621e-09
-1.35836e-09
-1.3806e-09
-1.40296e-09
-1.42549e-09
-1.44824e-09
-1.47133e-09
-1.49489e-09
-1.51913e-09
-1.54429e-09
-1.5708e-09
-1.5992e-09
-1.63019e-09
-1.66465e-09
-1.7044e-09
-1.75123e-09
-1.80843e-09
-1.87952e-09
-1.96823e-09
-2.07157e-09
1.45736e-10
-2.29758e-11
-3.3232e-11
-5.75242e-11
-8.13817e-11
-1.04338e-10
-1.26815e-10
-1.49063e-10
-1.71172e-10
-1.93224e-10
-2.15239e-10
-2.37218e-10
-2.59191e-10
-2.81171e-10
-3.03125e-10
-3.25101e-10
-3.47073e-10
-3.6903e-10
-3.90996e-10
-4.12972e-10
-4.3494e-10
-4.56901e-10
-4.78877e-10
-5.00857e-10
-5.22823e-10
-5.44795e-10
-5.66761e-10
-5.88732e-10
-6.10708e-10
-6.32689e-10
-6.54644e-10
-6.76618e-10
-6.98592e-10
-7.20567e-10
-7.42532e-10
-7.64494e-10
-7.86471e-10
-8.08456e-10
-8.30418e-10
-8.52385e-10
-8.74365e-10
-8.96335e-10
-9.18301e-10
-9.4027e-10
-9.62242e-10
-9.84223e-10
-1.0062e-09
-1.02816e-09
-1.05013e-09
-1.0721e-09
-1.0941e-09
-1.11605e-09
-1.13803e-09
-1.16001e-09
-1.182e-09
-1.20398e-09
-1.22597e-09
-1.24798e-09
-1.27001e-09
-1.29204e-09
-1.3141e-09
-1.33621e-09
-1.35837e-09
-1.38062e-09
-1.403e-09
-1.42554e-09
-1.44833e-09
-1.47145e-09
-1.49508e-09
-1.51941e-09
-1.54471e-09
-1.57135e-09
-1.59999e-09
-1.63136e-09
-1.66677e-09
-1.70693e-09
-1.75453e-09
-1.81243e-09
-1.88423e-09
-1.97373e-09
-2.07138e-09
-2.16362e-09
1.32293e-10
-1.18701e-11
-3.39284e-11
-5.79542e-11
-8.15642e-11
-1.04418e-10
-1.26858e-10
-1.4907e-10
-1.71182e-10
-1.93231e-10
-2.15232e-10
-2.37232e-10
-2.59195e-10
-2.81152e-10
-3.03141e-10
-3.25093e-10
-3.47048e-10
-3.69028e-10
-3.90998e-10
-4.12959e-10
-4.34933e-10
-4.56912e-10
-4.78874e-10
-5.00834e-10
-5.22816e-10
-5.44782e-10
-5.66764e-10
-5.88731e-10
-6.10695e-10
-6.32658e-10
-6.54647e-10
-6.76618e-10
-6.98574e-10
-7.20552e-10
-7.42527e-10
-7.64512e-10
-7.86478e-10
-8.08421e-10
-8.30412e-10
-8.52391e-10
-8.74356e-10
-8.96316e-10
-9.18302e-10
-9.40274e-10
-9.62241e-10
-9.8421e-10
-1.00618e-09
-1.02816e-09
-1.05013e-09
-1.07211e-09
-1.09406e-09
-1.11606e-09
-1.13802e-09
-1.16001e-09
-1.18198e-09
-1.20397e-09
-1.22598e-09
-1.24797e-09
-1.26998e-09
-1.29202e-09
-1.31409e-09
-1.33622e-09
-1.35838e-09
-1.38063e-09
-1.40301e-09
-1.42557e-09
-1.44836e-09
-1.47154e-09
-1.4952e-09
-1.51959e-09
-1.54497e-09
-1.57181e-09
-1.60065e-09
-1.63227e-09
-1.66801e-09
-1.70891e-09
-1.75727e-09
-1.81603e-09
-1.88871e-09
-1.9792e-09
-2.08989e-09
-2.1739e-09
-2.39268e-09
1.51381e-10
-1.3359e-11
-3.4887e-11
-5.83874e-11
-8.1746e-11
-1.04501e-10
-1.26912e-10
-1.49116e-10
-1.71204e-10
-1.93244e-10
-2.15249e-10
-2.37236e-10
-2.59202e-10
-2.8116e-10
-3.03124e-10
-3.25109e-10
-3.47077e-10
-3.69028e-10
-3.91001e-10
-4.12977e-10
-4.34939e-10
-4.56886e-10
-4.78873e-10
-5.00868e-10
-5.22822e-10
-5.44791e-10
-5.6676e-10
-5.88723e-10
-6.10714e-10
-6.3269e-10
-6.5464e-10
-6.7662e-10
-6.98592e-10
-7.20569e-10
-7.4253e-10
-7.64494e-10
-7.86462e-10
-8.08468e-10
-8.30423e-10
-8.52372e-10
-8.74366e-10
-8.96338e-10
-9.18294e-10
-9.40273e-10
-9.62237e-10
-9.84224e-10
-1.00619e-09
-1.02816e-09
-1.05013e-09
-1.0721e-09
-1.09409e-09
-1.11605e-09
-1.13803e-09
-1.16e-09
-1.182e-09
-1.20397e-09
-1.22597e-09
-1.24797e-09
-1.27001e-09
-1.29205e-09
-1.31411e-09
-1.3362e-09
-1.35838e-09
-1.38065e-09
-1.40303e-09
-1.42561e-09
-1.44843e-09
-1.47161e-09
-1.49534e-09
-1.51978e-09
-1.5453e-09
-1.57222e-09
-1.60126e-09
-1.63324e-09
-1.66936e-09
-1.71078e-09
-1.7598e-09
-1.81932e-09
-1.89278e-09
-1.98382e-09
-2.09433e-09
-2.12868e-09
-2.41909e-09
1.06375e-10
-9.2249e-12
-3.52201e-11
-5.87659e-11
-8.19327e-11
-1.04595e-10
-1.26963e-10
-1.49159e-10
-1.71225e-10
-1.9327e-10
-2.15266e-10
-2.37246e-10
-2.59203e-10
-2.81176e-10
-3.03143e-10
-3.25097e-10
-3.47049e-10
-3.69028e-10
-3.91004e-10
-4.12966e-10
-4.34934e-10
-4.56925e-10
-4.78875e-10
-5.00835e-10
-5.22828e-10
-5.44787e-10
-5.66763e-10
-5.88732e-10
-6.10697e-10
-6.32668e-10
-6.54651e-10
-6.76615e-10
-6.9859e-10
-7.20552e-10
-7.42527e-10
-7.64508e-10
-7.86489e-10
-8.08432e-10
-8.30419e-10
-8.52397e-10
-8.74362e-10
-8.9632e-10
-9.18311e-10
-9.40274e-10
-9.6224e-10
-9.84219e-10
-1.00619e-09
-1.02815e-09
-1.05014e-09
-1.07211e-09
-1.09407e-09
-1.11606e-09
-1.13802e-09
-1.16001e-09
-1.18198e-09
-1.20399e-09
-1.22597e-09
-1.24797e-09
-1.26998e-09
-1.29202e-09
-1.31409e-09
-1.33622e-09
-1.35839e-09
-1.38065e-09
-1.40306e-09
-1.42562e-09
-1.44846e-09
-1.47168e-09
-1.49542e-09
-1.51994e-09
-1.54548e-09
-1.57259e-09
-1.60178e-09
-1.63394e-09
-1.67008e-09
-1.71193e-09
-1.7617e-09
-1.82205e-09
-1.89639e-09
-1.98886e-09
-2.10373e-09
-2.17781e-09
-2.42278e-09
8.8263e-11
-1.23334e-11
-3.6707e-11
-5.92805e-11
-8.2163e-11
-1.04726e-10
-1.27074e-10
-1.49203e-10
-1.71291e-10
-1.93295e-10
-2.15286e-10
-2.37281e-10
-2.59228e-10
-2.81164e-10
-3.03145e-10
-3.25104e-10
-3.47089e-10
-3.69047e-10
-3.91007e-10
-4.12975e-10
-4.34946e-10
-4.56883e-10
-4.78903e-10
-5.00881e-10
-5.22814e-10
-5.44792e-10
-5.66772e-10
-5.88726e-10
-6.10728e-10
-6.32688e-10
-6.54652e-10
-6.76621e-10
-6.98609e-10
-7.20575e-10
-7.42533e-10
-7.64495e-10
-7.86486e-10
-8.08466e-10
-8.30431e-10
-8.52383e-10
-8.74387e-10
-8.96346e-10
-9.18294e-10
-9.40292e-10
-9.62251e-10
-9.8423e-10
-1.0062e-09
-1.02817e-09
-1.05012e-09
-1.07212e-09
-1.09408e-09
-1.11605e-09
-1.13803e-09
-1.16001e-09
-1.182e-09
-1.20397e-09
-1.22598e-09
-1.24798e-09
-1.27e-09
-1.29204e-09
-1.31411e-09
-1.33621e-09
-1.35839e-09
-1.38066e-09
-1.40305e-09
-1.42566e-09
-1.4485e-09
-1.47175e-09
-1.49551e-09
-1.52007e-09
-1.54572e-09
-1.57287e-09
-1.60224e-09
-1.63462e-09
-1.67112e-09
-1.71341e-09
-1.76366e-09
-1.82451e-09
-1.89937e-09
-1.9918e-09
-2.10847e-09
-2.23112e-09
-2.42366e-09
7.99722e-11
-1.59131e-11
-3.78018e-11
-5.95961e-11
-8.23196e-11
-1.04803e-10
-1.2711e-10
-1.49229e-10
-1.71296e-10
-1.9331e-10
-2.15298e-10
-2.37253e-10
-2.59222e-10
-2.81192e-10
-3.03151e-10
-3.25107e-10
-3.47056e-10
-3.69027e-10
-3.91008e-10
-4.12968e-10
-4.34929e-10
-4.56921e-10
-4.78858e-10
-5.00834e-10
-5.2284e-10
-5.44787e-10
-5.66758e-10
-5.88737e-10
-6.10691e-10
-6.32678e-10
-6.54647e-10
-6.76622e-10
-6.98579e-10
-7.20554e-10
-7.42532e-10
-7.64506e-10
-7.86478e-10
-8.08451e-10
-8.30427e-10
-8.52383e-10
-8.74364e-10
-8.96337e-10
-9.18309e-10
-9.40283e-10
-9.62224e-10
-9.84219e-10
-1.00618e-09
-1.02816e-09
-1.05015e-09
-1.0721e-09
-1.09408e-09
-1.11606e-09
-1.13803e-09
-1.16001e-09
-1.18197e-09
-1.20398e-09
-1.22595e-09
-1.24795e-09
-1.26998e-09
-1.29202e-09
-1.31409e-09
-1.33621e-09
-1.35838e-09
-1.38065e-09
-1.40306e-09
-1.42563e-09
-1.44852e-09
-1.47174e-09
-1.49556e-09
-1.52015e-09
-1.54584e-09
-1.5731e-09
-1.60257e-09
-1.63509e-09
-1.67185e-09
-1.71446e-09
-1.76506e-09
-1.82637e-09
-1.90159e-09
-1.99372e-09
-2.10925e-09
-2.25126e-09
-2.42644e-09
5.20343e-11
-1.44401e-11
-3.71842e-11
-5.97338e-11
-8.24027e-11
-1.0487e-10
-1.2714e-10
-1.49258e-10
-1.71313e-10
-1.93325e-10
-2.15307e-10
-2.37279e-10
-2.59246e-10
-2.81186e-10
-3.0314e-10
-3.25118e-10
-3.47083e-10
-3.69055e-10
-3.91008e-10
-4.12972e-10
-4.34941e-10
-4.5691e-10
-4.78906e-10
-5.00868e-10
-5.22807e-10
-5.44794e-10
-5.6677e-10
-5.8873e-10
-6.1073e-10
-6.32681e-10
-6.5466e-10
-6.76611e-10
-6.9861e-10
-7.20573e-10
-7.42526e-10
-7.64505e-10
-7.86489e-10
-8.08446e-10
-8.30421e-10
-8.52398e-10
-8.74363e-10
-8.96331e-10
-9.18297e-10
-9.40283e-10
-9.62253e-10
-9.84228e-10
-1.0062e-09
-1.02817e-09
-1.05012e-09
-1.07211e-09
-1.09409e-09
-1.11606e-09
-1.13802e-09
-1.16e-09
-1.18198e-09
-1.20398e-09
-1.22599e-09
-1.24797e-09
-1.26999e-09
-1.29202e-09
-1.31407e-09
-1.3362e-09
-1.35838e-09
-1.38065e-09
-1.40305e-09
-1.42567e-09
-1.44851e-09
-1.47181e-09
-1.49559e-09
-1.52021e-09
-1.54592e-09
-1.57327e-09
-1.60281e-09
-1.63544e-09
-1.67238e-09
-1.71524e-09
-1.76613e-09
-1.82777e-09
-1.90345e-09
-1.99689e-09
-2.11344e-09
-2.29704e-09
-2.43269e-09
4.97795e-11
-1.74768e-11
-3.8065e-11
-5.98752e-11
-8.24758e-11
-1.04907e-10
-1.27171e-10
-1.49257e-10
-1.71324e-10
-1.93327e-10
-2.15315e-10
-2.37245e-10
-2.59233e-10
-2.8119e-10
-3.03175e-10
-3.25095e-10
-3.47085e-10
-3.69021e-10
-3.91001e-10
-4.12976e-10
-4.34938e-10
-4.56902e-10
-4.78863e-10
-5.00841e-10
-5.22841e-10
-5.44794e-10
-5.66749e-10
-5.8874e-10
-6.10693e-10
-6.32682e-10
-6.54649e-10
-6.76625e-10
-6.98575e-10
-7.2056e-10
-7.42545e-10
-7.64487e-10
-7.86481e-10
-8.08444e-10
-8.30418e-10
-8.5239e-10
-8.7436e-10
-8.96328e-10
-9.183e-10
-9.40283e-10
-9.62243e-10
-9.8422e-10
-1.00618e-09
-1.02815e-09
-1.05015e-09
-1.0721e-09
-1.09406e-09
-1.11604e-09
-1.13804e-09
-1.16001e-09
-1.18199e-09
-1.20396e-09
-1.22593e-09
-1.24793e-09
-1.26997e-09
-1.29201e-09
-1.31409e-09
-1.33619e-09
-1.35837e-09
-1.38064e-09
-1.40304e-09
-1.42563e-09
-1.44851e-09
-1.47175e-09
-1.49561e-09
-1.52021e-09
-1.54599e-09
-1.57333e-09
-1.60295e-09
-1.63566e-09
-1.6727e-09
-1.71572e-09
-1.76682e-09
-1.82868e-09
-1.90459e-09
-1.99763e-09
-2.11318e-09
-2.29844e-09
-2.43709e-09
4.88582e-11
-1.55362e-11
-3.7352e-11
-5.98747e-11
-8.25217e-11
-1.04933e-10
-1.27171e-10
-1.49302e-10
-1.71321e-10
-1.93339e-10
-2.15291e-10
-2.37289e-10
-2.59249e-10
-2.81187e-10
-3.03128e-10
-3.25121e-10
-3.47077e-10
-3.69057e-10
-3.90998e-10
-4.12968e-10
-4.34937e-10
-4.56933e-10
-4.78897e-10
-5.0085e-10
-5.2281e-10
-5.44777e-10
-5.66782e-10
-5.88732e-10
-6.10721e-10
-6.32676e-10
-6.5465e-10
-6.76612e-10
-6.98612e-10
-7.20572e-10
-7.42521e-10
-7.64499e-10
-7.86482e-10
-8.08442e-10
-8.30415e-10
-8.52384e-10
-8.74358e-10
-8.96326e-10
-9.183e-10
-9.40275e-10
-9.62233e-10
-9.84217e-10
-1.00619e-09
-1.02818e-09
-1.05011e-09
-1.0721e-09
-1.09409e-09
-1.11606e-09
-1.13802e-09
-1.15999e-09
-1.18196e-09
-1.20398e-09
-1.22598e-09
-1.24796e-09
-1.26998e-09
-1.292e-09
-1.31405e-09
-1.33619e-09
-1.35836e-09
-1.38063e-09
-1.40302e-09
-1.42564e-09
-1.44848e-09
-1.47177e-09
-1.49557e-09
-1.52021e-09
-1.54595e-09
-1.57334e-09
-1.60297e-09
-1.63574e-09
-1.67284e-09
-1.71593e-09
-1.76711e-09
-1.82912e-09
-1.90521e-09
-1.99915e-09
-2.11552e-09
-2.30056e-09
-2.43996e-09
4.79736e-11
-1.67229e-11
-3.77696e-11
-5.99352e-11
-8.25289e-11
-1.04954e-10
-1.2719e-10
-1.49262e-10
-1.71331e-10
-1.93338e-10
-2.15322e-10
-2.37261e-10
-2.59234e-10
-2.81195e-10
-3.03174e-10
-3.25091e-10
-3.47096e-10
-3.69019e-10
-3.91013e-10
-4.12983e-10
-4.34935e-10
-4.56888e-10
-4.78866e-10
-5.00861e-10
-5.22838e-10
-5.44809e-10
-5.66743e-10
-5.88741e-10
-6.10708e-10
-6.32685e-10
-6.54654e-10
-6.76622e-10
-6.98575e-10
-7.20555e-10
-7.42547e-10
-7.64491e-10
-7.8649e-10
-8.08434e-10
-8.30411e-10
-8.52382e-10
-8.74358e-10
-8.96317e-10
-9.18296e-10
-9.40274e-10
-9.62245e-10
-9.84214e-10
-1.00618e-09
-1.02815e-09
-1.05016e-09
-1.07211e-09
-1.09406e-09
-1.11605e-09
-1.13804e-09
-1.16001e-09
-1.18199e-09
-1.20395e-09
-1.22592e-09
-1.24793e-09
-1.26996e-09
-1.292e-09
-1.31408e-09
-1.33616e-09
-1.35834e-09
-1.3806e-09
-1.403e-09
-1.42559e-09
-1.44846e-09
-1.4717e-09
-1.49554e-09
-1.52014e-09
-1.5459e-09
-1.57327e-09
-1.60291e-09
-1.63562e-09
-1.67276e-09
-1.71585e-09
-1.76708e-09
-1.82905e-09
-1.90516e-09
-1.99881e-09
-2.11496e-09
-2.30059e-09
-2.44095e-09
4.79435e-11
-1.6719e-11
-3.77691e-11
-5.9921e-11
-8.25349e-11
-1.04942e-10
-1.27187e-10
-1.49298e-10
-1.71327e-10
-1.93336e-10
-2.15298e-10
-2.37277e-10
-2.59253e-10
-2.81185e-10
-3.03126e-10
-3.25107e-10
-3.4708e-10
-3.69051e-10
-3.90978e-10
-4.1296e-10
-4.34946e-10
-4.56941e-10
-4.78895e-10
-5.0084e-10
-5.22815e-10
-5.44774e-10
-5.66776e-10
-5.88735e-10
-6.10703e-10
-6.32672e-10
-6.54637e-10
-6.76621e-10
-6.98603e-10
-7.20554e-10
-7.4253e-10
-7.64511e-10
-7.8646e-10
-8.08442e-10
-8.30409e-10
-8.52389e-10
-8.74349e-10
-8.96331e-10
-9.18294e-10
-9.40276e-10
-9.6224e-10
-9.84216e-10
-1.00618e-09
-1.02817e-09
-1.05012e-09
-1.07208e-09
-1.09409e-09
-1.11605e-09
-1.13801e-09
-1.15999e-09
-1.18195e-09
-1.20396e-09
-1.22597e-09
-1.24794e-09
-1.26995e-09
-1.29198e-09
-1.31402e-09
-1.33616e-09
-1.35832e-09
-1.38059e-09
-1.40297e-09
-1.42557e-09
-1.4484e-09
-1.47166e-09
-1.49545e-09
-1.52006e-09
-1.54579e-09
-1.57311e-09
-1.6027e-09
-1.6354e-09
-1.67247e-09
-1.71549e-09
-1.76657e-09
-1.8285e-09
-1.90449e-09
-1.99796e-09
-2.11405e-09
-2.29965e-09
-2.4402e-09
4.88462e-11
-1.56905e-11
-3.73866e-11
-5.98852e-11
-8.2508e-11
-1.04943e-10
-1.27166e-10
-1.49285e-10
-1.71306e-10
-1.93332e-10
-2.15314e-10
-2.3727e-10
-2.59234e-10
-2.81208e-10
-3.03155e-10
-3.25097e-10
-3.47097e-10
-3.69031e-10
-3.91008e-10
-4.12986e-10
-4.34933e-10
-4.56891e-10
-4.78866e-10
-5.00861e-10
-5.22836e-10
-5.44808e-10
-5.66752e-10
-5.88736e-10
-6.10701e-10
-6.32688e-10
-6.54668e-10
-6.76623e-10
-6.98582e-10
-7.20552e-10
-7.42529e-10
-7.64503e-10
-7.86502e-10
-8.0844e-10
-8.30408e-10
-8.52376e-10
-8.74359e-10
-8.9633e-10
-9.18297e-10
-9.40274e-10
-9.6224e-10
-9.84218e-10
-1.00618e-09
-1.02815e-09
-1.05015e-09
-1.07212e-09
-1.09406e-09
-1.11604e-09
-1.13804e-09
-1.16e-09
-1.18199e-09
-1.20395e-09
-1.22591e-09
-1.24795e-09
-1.26994e-09
-1.29198e-09
-1.31406e-09
-1.33613e-09
-1.3583e-09
-1.38054e-09
-1.40294e-09
-1.4255e-09
-1.44836e-09
-1.47157e-09
-1.49535e-09
-1.51992e-09
-1.54562e-09
-1.57289e-09
-1.60241e-09
-1.635e-09
-1.67197e-09
-1.71482e-09
-1.76576e-09
-1.82745e-09
-1.90321e-09
-1.99676e-09
-2.1131e-09
-2.29781e-09
-2.43816e-09
4.97554e-11
-1.73879e-11
-3.80572e-11
-5.9868e-11
-8.24661e-11
-1.04901e-10
-1.27157e-10
-1.49269e-10
-1.71313e-10
-1.93321e-10
-2.15312e-10
-2.37257e-10
-2.59239e-10
-2.81173e-10
-3.03134e-10
-3.25098e-10
-3.47075e-10
-3.69042e-10
-3.9098e-10
-4.12957e-10
-4.34941e-10
-4.5693e-10
-4.78889e-10
-5.00843e-10
-5.22809e-10
-5.44778e-10
-5.66768e-10
-5.8874e-10
-6.10712e-10
-6.32669e-10
-6.54619e-10
-6.76624e-10
-6.98588e-10
-7.2058e-10
-7.42526e-10
-7.64505e-10
-7.86472e-10
-8.08444e-10
-8.30406e-10
-8.52396e-10
-8.74356e-10
-8.96332e-10
-9.18301e-10