/*--------------------------------*- C++ -*----------------------------------*\
| =========                 |                                                 |
| \\      /  F ield         | OpenFOAM: The Open Source CFD Toolbox           |
|  \\    /   O peration     | Version:  v1906                                 |
|   \\  /    A nd           | Web:      www.OpenFOAM.com                      |
|    \\/     M anipulation  |                                                 |
\*---------------------------------------------------------------------------*/
FoamFile
{
    version     2.0;
    format      ascii;
    class       volScalarField;
    location    "0.1";
    object      p;
}
// * * * * * * * * * * * * * * * * * * * * * * * * * * * * * * * * * * * * * //

dimensions      [0 2 -2 0 0 0 0];


internalField   nonuniform List<scalar> 
243374
(
-1.00202e-15
-1.78557e-09
-1.09942e-09
-1.08153e-09
-1.11723e-09
-1.15974e-09
-1.18752e-09
-1.24049e-09
-1.2803e-09
-1.3211e-09
-1.35045e-09
-1.39233e-09
-1.43223e-09
-1.46381e-09
-1.49497e-09
-1.5176e-09
-1.53943e-09
-1.56505e-09
-1.58347e-09
-1.61311e-09
-1.63587e-09
-1.65379e-09
-1.68287e-09
-1.70255e-09
-1.72011e-09
-1.74846e-09
-1.76047e-09
-1.78848e-09
-1.8114e-09
-1.83484e-09
-1.85145e-09
-1.87682e-09
-1.89905e-09
-1.91949e-09
-1.94264e-09
-1.96378e-09
-1.98331e-09
-2.01213e-09
-2.02899e-09
-2.04816e-09
-2.07138e-09
-2.09784e-09
-2.11541e-09
-2.14166e-09
-2.16205e-09
-2.18841e-09
-2.20594e-09
-2.22766e-09
-2.25408e-09
-2.27468e-09
-2.29958e-09
-2.31885e-09
-2.33924e-09
-2.36071e-09
-2.37989e-09
-2.40823e-09
-2.43161e-09
-2.45292e-09
-2.46975e-09
-2.49458e-09
-2.51679e-09
-2.54025e-09
-2.56743e-09
-2.58779e-09
-2.61856e-09
-2.6471e-09
-2.68264e-09
-2.70855e-09
-2.74264e-09
-2.78863e-09
-2.82983e-09
-2.88185e-09
-2.94609e-09
-3.02551e-09
-3.11723e-09
-3.22977e-09
-3.376e-09
-3.50984e-09
-3.00381e-09
-5.08464e-09
-2.52543e-09
-1.4315e-09
-1.111e-09
-1.09681e-09
-1.12376e-09
-1.16485e-09
-1.20847e-09
-1.24799e-09
-1.2897e-09
-1.32463e-09
-1.36461e-09
-1.40811e-09
-1.44481e-09
-1.47643e-09
-1.5053e-09
-1.53013e-09
-1.55635e-09
-1.57849e-09
-1.59505e-09
-1.62395e-09
-1.6495e-09
-1.66367e-09
-1.6908e-09
-1.71253e-09
-1.73154e-09
-1.75864e-09
-1.77996e-09
-1.80029e-09
-1.82124e-09
-1.8451e-09
-1.87056e-09
-1.88604e-09
-1.90683e-09
-1.93093e-09
-1.95353e-09
-1.97666e-09
-1.99366e-09
-2.02015e-09
-2.03744e-09
-2.06125e-09
-2.08006e-09
-2.10526e-09
-2.13094e-09
-2.14871e-09
-2.17788e-09
-2.19901e-09
-2.21979e-09
-2.23838e-09
-2.26309e-09
-2.28632e-09
-2.3097e-09
-2.32865e-09
-2.34677e-09
-2.37607e-09
-2.39178e-09
-2.41855e-09
-2.44161e-09
-2.4627e-09
-2.48731e-09
-2.50482e-09
-2.52974e-09
-2.55362e-09
-2.57723e-09
-2.59899e-09
-2.62871e-09
-2.659e-09
-2.69385e-09
-2.72247e-09
-2.75879e-09
-2.79414e-09
-2.83516e-09
-2.88479e-09
-2.94935e-09
-3.02698e-09
-3.12361e-09
-3.23291e-09
-3.38482e-09
-3.5251e-09
-3.39854e-09
-2.60138e-09
-3.23773e-09
-1.26764e-09
-1.09134e-09
-1.09633e-09
-1.11907e-09
-1.15549e-09
-1.19256e-09
-1.23591e-09
-1.27528e-09
-1.31814e-09
-1.35853e-09
-1.39686e-09
-1.43679e-09
-1.46829e-09
-1.49612e-09
-1.52212e-09
-1.54418e-09
-1.56783e-09
-1.59134e-09
-1.61465e-09
-1.63955e-09
-1.6598e-09
-1.68238e-09
-1.70383e-09
-1.72664e-09
-1.74908e-09
-1.77035e-09
-1.79347e-09
-1.81274e-09
-1.83699e-09
-1.85696e-09
-1.88338e-09
-1.90353e-09
-1.92486e-09
-1.94607e-09
-1.96846e-09
-1.99192e-09
-2.01324e-09
-2.03723e-09
-2.05802e-09
-2.08091e-09
-2.10221e-09
-2.12342e-09
-2.14684e-09
-2.16832e-09
-2.18989e-09
-2.21038e-09
-2.23391e-09
-2.25591e-09
-2.27678e-09
-2.29958e-09
-2.322e-09
-2.3456e-09
-2.36507e-09
-2.38671e-09
-2.41069e-09
-2.43122e-09
-2.45417e-09
-2.47676e-09
-2.50198e-09
-2.52108e-09
-2.54801e-09
-2.56927e-09
-2.59268e-09
-2.62229e-09
-2.6558e-09
-2.68627e-09
-2.71974e-09
-2.75581e-09
-2.78775e-09
-2.83187e-09
-2.8828e-09
-2.94826e-09
-3.02767e-09
-3.12627e-09
-3.23754e-09
-3.38933e-09
-3.551e-09
-3.57616e-09
-1.87215e-09
-9.95024e-10
6.08799e-09
-8.28769e-10
-1.07408e-09
-1.09166e-09
-1.11718e-09
-1.15141e-09
-1.1881e-09
-1.23043e-09
-1.27246e-09
-1.31494e-09
-1.35835e-09
-1.40053e-09
-1.43732e-09
-1.46969e-09
-1.49742e-09
-1.52228e-09
-1.54612e-09
-1.56738e-09
-1.59034e-09
-1.61417e-09
-1.63872e-09
-1.65832e-09
-1.68128e-09
-1.7044e-09
-1.72356e-09
-1.74916e-09
-1.77101e-09
-1.79162e-09
-1.81268e-09
-1.83655e-09
-1.85769e-09
-1.88037e-09
-1.90258e-09
-1.92215e-09
-1.94229e-09
-1.96638e-09
-1.98939e-09
-2.01091e-09
-2.03556e-09
-2.05712e-09
-2.07885e-09
-2.10057e-09
-2.12042e-09
-2.14355e-09
-2.16517e-09
-2.18947e-09
-2.20937e-09
-2.23128e-09
-2.25375e-09
-2.27684e-09
-2.29823e-09
-2.32115e-09
-2.34392e-09
-2.36651e-09
-2.38607e-09
-2.41019e-09
-2.43146e-09
-2.45178e-09
-2.47722e-09
-2.49958e-09
-2.52119e-09
-2.54522e-09
-2.56941e-09
-2.59448e-09
-2.62265e-09
-2.65386e-09
-2.6846e-09
-2.7185e-09
-2.75214e-09
-2.78702e-09
-2.82825e-09
-2.88101e-09
-2.94919e-09
-3.03153e-09
-3.13e-09
-3.24715e-09
-3.39368e-09
-3.57379e-09
-3.99512e-09
-1.14053e-08
-4.88814e-09
-4.28921e-10
-4.74219e-09
-1.28064e-09
-1.07826e-09
-1.09245e-09
-1.11588e-09
-1.14655e-09
-1.18296e-09
-1.22378e-09
-1.26693e-09
-1.31053e-09
-1.35674e-09
-1.39696e-09
-1.43375e-09
-1.46768e-09
-1.49523e-09
-1.51973e-09
-1.54219e-09
-1.56511e-09
-1.58811e-09
-1.61075e-09
-1.63457e-09
-1.65581e-09
-1.67845e-09
-1.70044e-09
-1.72175e-09
-1.74543e-09
-1.7684e-09
-1.78923e-09
-1.8097e-09
-1.83322e-09
-1.85413e-09
-1.87769e-09
-1.89771e-09
-1.91932e-09
-1.94017e-09
-1.96368e-09
-1.98792e-09
-2.0096e-09
-2.03396e-09
-2.05647e-09
-2.07726e-09
-2.09901e-09
-2.11846e-09
-2.14072e-09
-2.16236e-09
-2.18476e-09
-2.2051e-09
-2.22895e-09
-2.25127e-09
-2.27349e-09
-2.29495e-09
-2.31782e-09
-2.3408e-09
-2.36305e-09
-2.38335e-09
-2.40621e-09
-2.42808e-09
-2.44877e-09
-2.47234e-09
-2.49717e-09
-2.51934e-09
-2.54222e-09
-2.56642e-09
-2.59177e-09
-2.61977e-09
-2.65101e-09
-2.68292e-09
-2.71667e-09
-2.7497e-09
-2.78391e-09
-2.82656e-09
-2.88004e-09
-2.94923e-09
-3.03383e-09
-3.13421e-09
-3.25461e-09
-3.40339e-09
-3.5869e-09
-3.71333e-09
-5.02948e-10
-4.65173e-09
-4.83747e-09
1.28521e-09
2.68591e-09
-8.24849e-10
-1.06782e-09
-1.09344e-09
-1.11542e-09
-1.14308e-09
-1.17859e-09
-1.22002e-09
-1.26353e-09
-1.30941e-09
-1.35549e-09
-1.39618e-09
-1.4331e-09
-1.46632e-09
-1.49401e-09
-1.51798e-09
-1.54124e-09
-1.56438e-09
-1.58635e-09
-1.60913e-09
-1.63343e-09
-1.65378e-09
-1.67718e-09
-1.69917e-09
-1.72062e-09
-1.74351e-09
-1.76684e-09
-1.78766e-09
-1.80845e-09
-1.83121e-09
-1.85287e-09
-1.87518e-09
-1.89682e-09
-1.91731e-09
-1.93822e-09
-1.96229e-09
-1.98674e-09
-2.00935e-09
-2.03265e-09
-2.05656e-09
-2.07602e-09
-2.09748e-09
-2.11703e-09
-2.13876e-09
-2.16119e-09
-2.1822e-09
-2.20278e-09
-2.2269e-09
-2.2492e-09
-2.27201e-09
-2.29364e-09
-2.31625e-09
-2.33908e-09
-2.36093e-09
-2.38193e-09
-2.40408e-09
-2.42593e-09
-2.44728e-09
-2.4714e-09
-2.49537e-09
-2.518e-09
-2.54038e-09
-2.56453e-09
-2.59056e-09
-2.61873e-09
-2.64885e-09
-2.682e-09
-2.71522e-09
-2.74773e-09
-2.78335e-09
-2.82512e-09
-2.87977e-09
-2.95027e-09
-3.03603e-09
-3.1379e-09
-3.25888e-09
-3.40889e-09
-3.60219e-09
-4.04012e-09
-8.01271e-09
-4.89725e-09
-4.74501e-09
-4.83635e-10
-2.07956e-09
-1.08102e-09
-1.06993e-09
-1.09239e-09
-1.11399e-09
-1.14173e-09
-1.17705e-09
-1.21781e-09
-1.26162e-09
-1.30805e-09
-1.35423e-09
-1.39546e-09
-1.43235e-09
-1.46559e-09
-1.4935e-09
-1.51693e-09
-1.54051e-09
-1.56444e-09
-1.58459e-09
-1.60851e-09
-1.63172e-09
-1.65318e-09
-1.67648e-09
-1.69793e-09
-1.72015e-09
-1.74213e-09
-1.76608e-09
-1.78651e-09
-1.80777e-09
-1.82992e-09
-1.85208e-09
-1.87431e-09
-1.89566e-09
-1.9171e-09
-1.93788e-09
-1.96198e-09
-1.98547e-09
-2.00843e-09
-2.03096e-09
-2.05468e-09
-2.07338e-09
-2.09454e-09
-2.1153e-09
-2.1375e-09
-2.15929e-09
-2.18103e-09
-2.20283e-09
-2.22644e-09
-2.24834e-09
-2.27114e-09
-2.29329e-09
-2.31528e-09
-2.33807e-09
-2.36029e-09
-2.38132e-09
-2.40301e-09
-2.42437e-09
-2.44665e-09
-2.47072e-09
-2.49397e-09
-2.51741e-09
-2.53928e-09
-2.56389e-09
-2.58987e-09
-2.61802e-09
-2.64778e-09
-2.68177e-09
-2.71421e-09
-2.74684e-09
-2.7827e-09
-2.82511e-09
-2.87972e-09
-2.95092e-09
-3.03755e-09
-3.13998e-09
-3.26151e-09
-3.41197e-09
-3.60377e-09
-3.82351e-09
-2.93515e-09
-4.67352e-09
-4.84253e-09
-1.15863e-09
-2.28141e-09
-1.07482e-09
-1.06992e-09
-1.09262e-09
-1.11436e-09
-1.14179e-09
-1.17714e-09
-1.21789e-09
-1.2617e-09
-1.30775e-09
-1.35449e-09
-1.39617e-09
-1.43194e-09
-1.46616e-09
-1.49414e-09
-1.51751e-09
-1.54095e-09
-1.5646e-09
-1.58473e-09
-1.60867e-09
-1.6315e-09
-1.65358e-09
-1.67674e-09
-1.69729e-09
-1.72074e-09
-1.74222e-09
-1.76605e-09
-1.78695e-09
-1.80783e-09
-1.8301e-09
-1.85231e-09
-1.87461e-09
-1.89609e-09
-1.91691e-09
-1.93837e-09
-1.9619e-09
-1.98544e-09
-2.00744e-09
-2.03057e-09
-2.05495e-09
-2.07381e-09
-2.09527e-09
-2.11608e-09
-2.13853e-09
-2.1591e-09
-2.18058e-09
-2.20338e-09
-2.22693e-09
-2.24871e-09
-2.27159e-09
-2.29346e-09
-2.31541e-09
-2.33801e-09
-2.36062e-09
-2.38138e-09
-2.40301e-09
-2.42514e-09
-2.44726e-09
-2.47097e-09
-2.49391e-09
-2.51784e-09
-2.53969e-09
-2.56392e-09
-2.59004e-09
-2.61835e-09
-2.64861e-09
-2.68217e-09
-2.71415e-09
-2.74696e-09
-2.78284e-09
-2.8254e-09
-2.88006e-09
-2.95131e-09
-3.03816e-09
-3.14041e-09
-3.26185e-09
-3.41245e-09
-3.60401e-09
-3.81856e-09
-3.13542e-09
-4.52314e-09
-4.84704e-09
-2.68091e-09
2.80252e-09
-8.54158e-10
-1.06799e-09
-1.09334e-09
-1.11549e-09
-1.14339e-09
-1.1788e-09
-1.21939e-09
-1.26341e-09
-1.30868e-09
-1.35586e-09
-1.39772e-09
-1.43283e-09
-1.46794e-09
-1.49598e-09
-1.51914e-09
-1.54156e-09
-1.56568e-09
-1.58667e-09
-1.60976e-09
-1.6323e-09
-1.65494e-09
-1.67721e-09
-1.6986e-09
-1.72207e-09
-1.7429e-09
-1.7668e-09
-1.78738e-09
-1.80836e-09
-1.83112e-09
-1.85391e-09
-1.87593e-09
-1.89641e-09
-1.9183e-09
-1.93932e-09
-1.96192e-09
-1.98455e-09
-2.00787e-09
-2.03017e-09
-2.05438e-09
-2.07421e-09
-2.09557e-09
-2.11599e-09
-2.13825e-09
-2.16013e-09
-2.18173e-09
-2.20503e-09
-2.22813e-09
-2.24987e-09
-2.27246e-09
-2.29503e-09
-2.31618e-09
-2.33828e-09
-2.36213e-09
-2.38255e-09
-2.40399e-09
-2.42648e-09
-2.44813e-09
-2.47213e-09
-2.4943e-09
-2.5189e-09
-2.54098e-09
-2.56449e-09
-2.5904e-09
-2.61943e-09
-2.65016e-09
-2.68217e-09
-2.71504e-09
-2.74754e-09
-2.78383e-09
-2.82558e-09
-2.88111e-09
-2.95179e-09
-3.03781e-09
-3.13913e-09
-3.26047e-09
-3.41059e-09
-3.60358e-09
-4.0797e-09
-7.92435e-09
-4.64372e-09
-4.77419e-09
-2.4645e-09
-4.70927e-09
-1.17718e-09
-1.07508e-09
-1.09278e-09
-1.11626e-09
-1.14702e-09
-1.18314e-09
-1.22289e-09
-1.26689e-09
-1.31034e-09
-1.35775e-09
-1.39859e-09
-1.43389e-09
-1.46914e-09
-1.49665e-09
-1.52112e-09
-1.54295e-09
-1.5657e-09
-1.58787e-09
-1.61106e-09
-1.63249e-09
-1.6566e-09
-1.67739e-09
-1.70007e-09
-1.72253e-09
-1.74456e-09
-1.76675e-09
-1.7889e-09
-1.81042e-09
-1.83192e-09
-1.8549e-09
-1.87663e-09
-1.89915e-09
-1.92149e-09
-1.94107e-09
-1.96397e-09
-1.98552e-09
-2.00925e-09
-2.0306e-09
-2.05415e-09
-2.07455e-09
-2.09652e-09
-2.11699e-09
-2.13993e-09
-2.16217e-09
-2.18468e-09
-2.20705e-09
-2.22872e-09
-2.2514e-09
-2.2728e-09
-2.29692e-09
-2.31833e-09
-2.33908e-09
-2.36293e-09
-2.38311e-09
-2.40494e-09
-2.42716e-09
-2.44783e-09
-2.47379e-09
-2.49492e-09
-2.52009e-09
-2.54181e-09
-2.56589e-09
-2.5918e-09
-2.62033e-09
-2.65144e-09
-2.68317e-09
-2.71658e-09
-2.74762e-09
-2.78569e-09
-2.8275e-09
-2.88202e-09
-2.95178e-09
-3.03648e-09
-3.13781e-09
-3.25784e-09
-3.40661e-09
-3.58641e-09
-3.60776e-09
-4.57963e-10
-4.53649e-09
-4.85216e-09
-9.94904e-10
6.23714e-09
-8.78436e-10
-1.07451e-09
-1.09171e-09
-1.11799e-09
-1.15204e-09
-1.18812e-09
-1.22914e-09
-1.2722e-09
-1.31584e-09
-1.3605e-09
-1.40287e-09
-1.43889e-09
-1.47097e-09
-1.49788e-09
-1.52316e-09
-1.54499e-09
-1.57282e-09
-1.59026e-09
-1.61432e-09
-1.63683e-09
-1.65831e-09
-1.67896e-09
-1.70298e-09
-1.72814e-09
-1.74894e-09
-1.77207e-09
-1.79231e-09
-1.81226e-09
-1.83491e-09
-1.85742e-09
-1.8823e-09
-1.90202e-09
-1.92657e-09
-1.94391e-09
-1.96729e-09
-1.98762e-09
-2.01129e-09
-2.03186e-09
-2.05452e-09
-2.07525e-09
-2.09827e-09
-2.12069e-09
-2.14294e-09
-2.1653e-09
-2.18746e-09
-2.20976e-09
-2.23152e-09
-2.25638e-09
-2.27595e-09
-2.29801e-09
-2.31966e-09
-2.34213e-09
-2.36505e-09
-2.38689e-09
-2.40827e-09
-2.4311e-09
-2.45073e-09
-2.47556e-09
-2.50108e-09
-2.5222e-09
-2.54463e-09
-2.56928e-09
-2.59469e-09
-2.62159e-09
-2.65481e-09
-2.68493e-09
-2.71972e-09
-2.75068e-09
-2.78761e-09
-2.83014e-09
-2.88372e-09
-2.95247e-09
-3.03567e-09
-3.13344e-09
-3.25197e-09
-3.39848e-09
-3.57747e-09
-4.04522e-09
-1.12638e-08
-4.8103e-09
-4.83585e-09
-9.697e-10
-3.30853e-09
-1.28778e-09
-1.09309e-09
-1.09636e-09
-1.12092e-09
-1.15633e-09
-1.19337e-09
-1.23115e-09
-1.27536e-09
-1.31767e-09
-1.35785e-09
-1.3983e-09
-1.43497e-09
-1.46912e-09
-1.49506e-09
-1.52211e-09
-1.54467e-09
-1.56263e-09
-1.58816e-09
-1.61553e-09
-1.63687e-09
-1.65918e-09
-1.68027e-09
-1.70211e-09
-1.72384e-09
-1.74638e-09
-1.76669e-09
-1.79157e-09
-1.81289e-09
-1.83522e-09
-1.85895e-09
-1.87757e-09
-1.90171e-09
-1.92362e-09
-1.94417e-09
-1.96391e-09
-1.98901e-09
-2.01255e-09
-2.03334e-09
-2.05475e-09
-2.07554e-09
-2.09896e-09
-2.1223e-09
-2.14329e-09
-2.16586e-09
-2.18683e-09
-2.20927e-09
-2.23166e-09
-2.25352e-09
-2.27553e-09
-2.29893e-09
-2.32162e-09
-2.34045e-09
-2.36316e-09
-2.38615e-09
-2.40762e-09
-2.42884e-09
-2.45058e-09
-2.47579e-09
-2.49289e-09
-2.52365e-09
-2.54212e-09
-2.5698e-09
-2.59442e-09
-2.62072e-09
-2.65399e-09
-2.68533e-09
-2.71693e-09
-2.75152e-09
-2.79009e-09
-2.83112e-09
-2.88601e-09
-2.95207e-09
-3.03338e-09
-3.12991e-09
-3.24314e-09
-3.39491e-09
-3.55711e-09
-3.59678e-09
-1.93229e-09
-4.56497e-09
-2.56049e-09
-1.44587e-09
-1.11094e-09
-1.09648e-09
-1.12781e-09
-1.16534e-09
-1.20635e-09
-1.24595e-09
-1.28816e-09
-1.33129e-09
-1.37013e-09
-1.40927e-09
-1.44576e-09
-1.47837e-09
-1.50302e-09
-1.52876e-09
-1.55355e-09
-1.57853e-09
-1.59849e-09
-1.62458e-09
-1.64803e-09
-1.66461e-09
-1.68881e-09
-1.71144e-09
-1.73469e-09
-1.75588e-09
-1.77982e-09
-1.80082e-09
-1.81952e-09
-1.84361e-09
-1.86395e-09
-1.88887e-09
-1.91048e-09
-1.93301e-09
-1.95338e-09
-1.97648e-09
-1.99793e-09
-2.02116e-09
-2.03918e-09
-2.06053e-09
-2.08364e-09
-2.10876e-09
-2.12883e-09
-2.15227e-09
-2.17534e-09
-2.19965e-09
-2.21922e-09
-2.24005e-09
-2.26356e-09
-2.28349e-09
-2.30699e-09
-2.32657e-09
-2.34949e-09
-2.37493e-09
-2.39495e-09
-2.41712e-09
-2.43914e-09
-2.46361e-09
-2.48298e-09
-2.50639e-09
-2.5289e-09
-2.55297e-09
-2.57868e-09
-2.6046e-09
-2.63104e-09
-2.6586e-09
-2.6882e-09
-2.72796e-09
-2.76006e-09
-2.79555e-09
-2.83733e-09
-2.88981e-09
-2.95217e-09
-3.031e-09
-3.13041e-09
-3.24044e-09
-3.39002e-09
-3.53186e-09
-3.41575e-09
-2.63126e-09
-2.30317e-11
-1.79199e-09
-1.09993e-09
-1.08294e-09
-1.11767e-09
-1.15726e-09
-1.19182e-09
-1.22905e-09
-1.27914e-09
-1.32234e-09
-1.36117e-09
-1.3979e-09
-1.4268e-09
-1.46246e-09
-1.49138e-09
-1.51296e-09
-1.54214e-09
-1.56142e-09
-1.58844e-09
-1.61579e-09
-1.63393e-09
-1.65011e-09
-1.67294e-09
-1.70206e-09
-1.72754e-09
-1.74386e-09
-1.76167e-09
-1.79e-09
-1.80437e-09
-1.83326e-09
-1.85906e-09
-1.87419e-09
-1.90028e-09
-1.9251e-09
-1.94215e-09
-1.9617e-09
-1.99219e-09
-2.0141e-09
-2.03372e-09
-2.0536e-09
-2.07281e-09
-2.09507e-09
-2.1207e-09
-2.14367e-09
-2.16423e-09
-2.17679e-09
-2.21014e-09
-2.22737e-09
-2.25619e-09
-2.2736e-09
-2.29166e-09
-2.31321e-09
-2.34101e-09
-2.36626e-09
-2.37865e-09
-2.40676e-09
-2.42877e-09
-2.45231e-09
-2.47056e-09
-2.49192e-09
-2.51936e-09
-2.54351e-09
-2.56842e-09
-2.59715e-09
-2.61221e-09
-2.64917e-09
-2.67577e-09
-2.71732e-09
-2.74588e-09
-2.78647e-09
-2.8296e-09
-2.88825e-09
-2.94685e-09
-3.02761e-09
-3.12468e-09
-3.23702e-09
-3.38201e-09
-3.51706e-09
-3.01573e-09
-5.10567e-09
1.19848e-10
-1.18049e-09
-1.11173e-09
-1.12503e-09
-1.14251e-09
-1.17334e-09
-1.20396e-09
-1.24537e-09
-1.28249e-09
-1.32073e-09
-1.35091e-09
-1.39147e-09
-1.42536e-09
-1.45707e-09
-1.48869e-09
-1.5139e-09
-1.53496e-09
-1.564e-09
-1.59333e-09
-1.60959e-09
-1.62768e-09
-1.65686e-09
-1.67755e-09
-1.69391e-09
-1.72377e-09
-1.7452e-09
-1.76848e-09
-1.78126e-09
-1.80835e-09
-1.8367e-09
-1.85065e-09
-1.87774e-09
-1.89453e-09
-1.91682e-09
-1.94551e-09
-1.96486e-09
-1.98453e-09
-2.00187e-09
-2.03021e-09
-2.05332e-09
-2.06777e-09
-2.09506e-09
-2.11659e-09
-2.13776e-09
-2.1645e-09
-2.18113e-09
-2.20867e-09
-2.22247e-09
-2.25245e-09
-2.27172e-09
-2.28889e-09
-2.32007e-09
-2.33979e-09
-2.36051e-09
-2.37797e-09
-2.41027e-09
-2.42792e-09
-2.44101e-09
-2.4678e-09
-2.49691e-09
-2.51668e-09
-2.53998e-09
-2.55966e-09
-2.59007e-09
-2.60964e-09
-2.64191e-09
-2.66896e-09
-2.69514e-09
-2.7364e-09
-2.76555e-09
-2.80399e-09
-2.85582e-09
-2.90715e-09
-2.97458e-09
-3.04869e-09
-3.14006e-09
-3.26075e-09
-3.39309e-09
-3.48904e-09
-5.03891e-09
-2.28485e-09
-3.22239e-09
-1.11378e-09
-1.10652e-09
-1.13006e-09
-1.15731e-09
-1.18642e-09
-1.21877e-09
-1.25279e-09
-1.28675e-09
-1.32255e-09
-1.36102e-09
-1.39756e-09
-1.42948e-09
-1.46918e-09
-1.49985e-09
-1.52277e-09
-1.55114e-09
-1.57061e-09
-1.59453e-09
-1.61764e-09
-1.64254e-09
-1.66268e-09
-1.6848e-09
-1.70837e-09
-1.72876e-09
-1.75028e-09
-1.77383e-09
-1.79669e-09
-1.81661e-09
-1.8406e-09
-1.85968e-09
-1.88295e-09
-1.9035e-09
-1.93161e-09
-1.95062e-09
-1.96916e-09
-1.99287e-09
-2.01275e-09
-2.03616e-09
-2.05669e-09
-2.08077e-09
-2.1032e-09
-2.12163e-09
-2.14858e-09
-2.16784e-09
-2.18844e-09
-2.21574e-09
-2.23584e-09
-2.264e-09
-2.27684e-09
-2.30385e-09
-2.32763e-09
-2.34586e-09
-2.36844e-09
-2.3972e-09
-2.41142e-09
-2.43585e-09
-2.45708e-09
-2.47637e-09
-2.50205e-09
-2.52927e-09
-2.54851e-09
-2.56792e-09
-2.5956e-09
-2.62586e-09
-2.64756e-09
-2.67682e-09
-2.70941e-09
-2.73477e-09
-2.76706e-09
-2.8082e-09
-2.85373e-09
-2.90801e-09
-2.97601e-09
-3.05186e-09
-3.15076e-09
-3.27457e-09
-3.42729e-09
-3.59808e-09
-1.74467e-09
-3.89848e-09
-1.04375e-09
6.34768e-10
-1.00618e-09
-1.09578e-09
-1.122e-09
-1.14994e-09
-1.1793e-09
-1.20873e-09
-1.24204e-09
-1.27605e-09
-1.31281e-09
-1.35226e-09
-1.39121e-09
-1.42652e-09
-1.4609e-09
-1.49117e-09
-1.51928e-09
-1.54121e-09
-1.56871e-09
-1.59121e-09
-1.61487e-09
-1.63231e-09
-1.65561e-09
-1.68323e-09
-1.70592e-09
-1.72565e-09
-1.74366e-09
-1.76586e-09
-1.79313e-09
-1.81595e-09
-1.83731e-09
-1.84996e-09
-1.87546e-09
-1.90502e-09
-1.9254e-09
-1.9485e-09
-1.96291e-09
-1.98748e-09
-2.00837e-09
-2.02794e-09
-2.05241e-09
-2.07544e-09
-2.09353e-09
-2.11816e-09
-2.14292e-09
-2.16506e-09
-2.18276e-09
-2.21425e-09
-2.23348e-09
-2.25547e-09
-2.27676e-09
-2.29236e-09
-2.32353e-09
-2.347e-09
-2.36402e-09
-2.38484e-09
-2.41038e-09
-2.42765e-09
-2.4551e-09
-2.47143e-09
-2.4985e-09
-2.51991e-09
-2.54067e-09
-2.56848e-09
-2.58899e-09
-2.61785e-09
-2.64835e-09
-2.66952e-09
-2.70397e-09
-2.73222e-09
-2.76616e-09
-2.80561e-09
-2.85693e-09
-2.91397e-09
-2.98717e-09
-3.0694e-09
-3.1733e-09
-3.30354e-09
-3.46538e-09
-3.74002e-09
-5.63503e-09
-4.24742e-09
-4.26646e-09
-1.02683e-09
-5.3595e-10
-9.85627e-10
-1.08844e-09
-1.11191e-09
-1.14122e-09
-1.17175e-09
-1.19898e-09
-1.2372e-09
-1.27368e-09
-1.31145e-09
-1.3522e-09
-1.385e-09
-1.42795e-09
-1.46294e-09
-1.49154e-09
-1.52075e-09
-1.53947e-09
-1.56989e-09
-1.59375e-09
-1.61569e-09
-1.63337e-09
-1.65524e-09
-1.68441e-09
-1.70615e-09
-1.72732e-09
-1.74531e-09
-1.76534e-09
-1.79196e-09
-1.81509e-09
-1.83343e-09
-1.85122e-09
-1.87508e-09
-1.90235e-09
-1.92407e-09
-1.94645e-09
-1.96308e-09
-1.98986e-09
-2.00829e-09
-2.02612e-09
-2.04443e-09
-2.0765e-09
-2.09293e-09
-2.1183e-09
-2.14557e-09
-2.16298e-09
-2.18413e-09
-2.20987e-09
-2.23392e-09
-2.2578e-09
-2.27263e-09
-2.29606e-09
-2.3219e-09
-2.34293e-09
-2.36008e-09
-2.3874e-09
-2.40889e-09
-2.42747e-09
-2.45644e-09
-2.4699e-09
-2.49515e-09
-2.52107e-09
-2.54063e-09
-2.57072e-09
-2.58911e-09
-2.62037e-09
-2.64333e-09
-2.67365e-09
-2.70493e-09
-2.73426e-09
-2.77058e-09
-2.81296e-09
-2.86484e-09
-2.92442e-09
-2.99976e-09
-3.08565e-09
-3.19508e-09
-3.33151e-09
-3.49797e-09
-3.79387e-09
-4.51014e-09
-4.23704e-09
-4.65458e-09
-1.0228e-09
-2.99433e-10
-9.37666e-10
-1.08105e-09
-1.10081e-09
-1.13627e-09
-1.17363e-09
-1.21766e-09
-1.25499e-09
-1.29423e-09
-1.33403e-09
-1.36862e-09
-1.41086e-09
-1.44031e-09
-1.47203e-09
-1.50626e-09
-1.52867e-09
-1.55835e-09
-1.5772e-09
-1.60005e-09
-1.62309e-09
-1.64656e-09
-1.67566e-09
-1.693e-09
-1.71544e-09
-1.73463e-09
-1.76139e-09
-1.78646e-09
-1.79876e-09
-1.82285e-09
-1.84638e-09
-1.8728e-09
-1.89189e-09
-1.91181e-09
-1.9314e-09
-1.95523e-09
-1.98401e-09
-1.99673e-09
-2.02102e-09
-2.04573e-09
-2.06771e-09
-2.08793e-09
-2.11157e-09
-2.12785e-09
-2.15393e-09
-2.18472e-09
-2.20269e-09
-2.21891e-09
-2.2409e-09
-2.26559e-09
-2.2953e-09
-2.31161e-09
-2.33032e-09
-2.35283e-09
-2.38159e-09
-2.39451e-09
-2.41922e-09
-2.44576e-09
-2.46449e-09
-2.48949e-09
-2.50543e-09
-2.53195e-09
-2.55704e-09
-2.57652e-09
-2.61058e-09
-2.62928e-09
-2.65747e-09
-2.69531e-09
-2.72248e-09
-2.76133e-09
-2.79851e-09
-2.84035e-09
-2.89545e-09
-2.95823e-09
-3.03228e-09
-3.1238e-09
-3.23361e-09
-3.37016e-09
-3.53006e-09
-3.87247e-09
-4.78337e-09
-4.36985e-09
-4.84787e-09
-1.14282e-09
-2.61654e-09
-1.1536e-09
-1.09149e-09
-1.10005e-09
-1.14887e-09
-1.18929e-09
-1.23622e-09
-1.27576e-09
-1.31573e-09
-1.35249e-09
-1.38788e-09
-1.42244e-09
-1.4543e-09
-1.48585e-09
-1.51741e-09
-1.541e-09
-1.56817e-09
-1.58887e-09
-1.61916e-09
-1.63483e-09
-1.66848e-09
-1.68288e-09
-1.70041e-09
-1.72538e-09
-1.75124e-09
-1.77132e-09
-1.79743e-09
-1.81612e-09
-1.83375e-09
-1.85679e-09
-1.88328e-09
-1.90649e-09
-1.92317e-09
-1.95015e-09
-1.96665e-09
-1.99339e-09
-2.01393e-09
-2.03216e-09
-2.06414e-09
-2.08384e-09
-2.10632e-09
-2.12956e-09
-2.14637e-09
-2.16633e-09
-2.19416e-09
-2.21133e-09
-2.23953e-09
-2.25768e-09
-2.27477e-09
-2.30424e-09
-2.32235e-09
-2.34082e-09
-2.37095e-09
-2.39003e-09
-2.41071e-09
-2.42951e-09
-2.45455e-09
-2.47329e-09
-2.50059e-09
-2.52166e-09
-2.54532e-09
-2.57561e-09
-2.58991e-09
-2.62032e-09
-2.64393e-09
-2.67613e-09
-2.70989e-09
-2.7462e-09
-2.78233e-09
-2.81635e-09
-2.86114e-09
-2.91393e-09
-2.97437e-09
-3.04827e-09
-3.13813e-09
-3.25168e-09
-3.39376e-09
-3.54872e-09
-3.69935e-09
-2.52647e-09
-4.24287e-09
-4.9197e-09
-1.14585e-09
-2.31186e-09
-1.15872e-09
-1.08634e-09
-1.10387e-09
-1.14991e-09
-1.19002e-09
-1.23339e-09
-1.27518e-09
-1.31411e-09
-1.3511e-09
-1.38322e-09
-1.41719e-09
-1.45049e-09
-1.48235e-09
-1.51207e-09
-1.53719e-09
-1.56051e-09
-1.58437e-09
-1.61148e-09
-1.63142e-09
-1.6581e-09
-1.6762e-09
-1.69841e-09
-1.72142e-09
-1.7443e-09
-1.76422e-09
-1.7878e-09
-1.81069e-09
-1.83143e-09
-1.85085e-09
-1.87665e-09
-1.90319e-09
-1.92167e-09
-1.94483e-09
-1.9648e-09
-1.98781e-09
-2.01303e-09
-2.03182e-09
-2.06078e-09
-2.08206e-09
-2.10494e-09
-2.1267e-09
-2.14649e-09
-2.16346e-09
-2.18673e-09
-2.2047e-09
-2.23293e-09
-2.25243e-09
-2.27298e-09
-2.29436e-09
-2.31555e-09
-2.33594e-09
-2.36472e-09
-2.38192e-09
-2.40664e-09
-2.42491e-09
-2.44606e-09
-2.47044e-09
-2.49582e-09
-2.51966e-09
-2.54022e-09
-2.5661e-09
-2.58565e-09
-2.61095e-09
-2.63829e-09
-2.67589e-09
-2.70573e-09
-2.73986e-09
-2.77809e-09
-2.81494e-09
-2.86078e-09
-2.91381e-09
-2.97516e-09
-3.04984e-09
-3.1414e-09
-3.25828e-09
-3.40714e-09
-3.56669e-09
-3.70989e-09
-2.85e-09
-4.1664e-09
-4.96301e-09
-1.10762e-09
-1.24341e-09
-1.05511e-09
-1.073e-09
-1.1094e-09
-1.14889e-09
-1.18913e-09
-1.23156e-09
-1.27383e-09
-1.31263e-09
-1.3485e-09
-1.38308e-09
-1.41959e-09
-1.45368e-09
-1.48699e-09
-1.5181e-09
-1.54258e-09
-1.56774e-09
-1.58903e-09
-1.6107e-09
-1.635e-09
-1.65785e-09
-1.6784e-09
-1.70004e-09
-1.72496e-09
-1.74638e-09
-1.77174e-09
-1.79116e-09
-1.81286e-09
-1.8335e-09
-1.8573e-09
-1.87874e-09
-1.90248e-09
-1.92313e-09
-1.94618e-09
-1.96508e-09
-1.98751e-09
-2.00968e-09
-2.0323e-09
-2.05654e-09
-2.07995e-09
-2.1032e-09
-2.1235e-09
-2.14413e-09
-2.16306e-09
-2.18663e-09
-2.21197e-09
-2.23235e-09
-2.25323e-09
-2.27545e-09
-2.29428e-09
-2.32363e-09
-2.34298e-09
-2.36522e-09
-2.38759e-09
-2.40762e-09
-2.43005e-09
-2.45291e-09
-2.47288e-09
-2.49729e-09
-2.51947e-09
-2.54426e-09
-2.56559e-09
-2.59152e-09
-2.61682e-09
-2.64495e-09
-2.67631e-09
-2.71058e-09
-2.74257e-09
-2.77816e-09
-2.81621e-09
-2.86045e-09
-2.91255e-09
-2.97477e-09
-3.05081e-09
-3.14225e-09
-3.25925e-09
-3.40753e-09
-3.58763e-09
-3.83161e-09
-3.98988e-09
-4.523e-09
-4.96652e-09
-1.08791e-09
-3.03064e-09
-1.15232e-09
-1.0803e-09
-1.10569e-09
-1.14559e-09
-1.18681e-09
-1.22892e-09
-1.27025e-09
-1.30919e-09
-1.34553e-09
-1.37997e-09
-1.41716e-09
-1.45319e-09
-1.487e-09
-1.51516e-09
-1.54079e-09
-1.56402e-09
-1.58692e-09
-1.60917e-09
-1.63234e-09
-1.65512e-09
-1.67687e-09
-1.69866e-09
-1.72258e-09
-1.74446e-09
-1.76707e-09
-1.78829e-09
-1.81125e-09
-1.83165e-09
-1.85373e-09
-1.87457e-09
-1.89913e-09
-1.91866e-09
-1.9427e-09
-1.96241e-09
-1.98501e-09
-2.00683e-09
-2.03167e-09
-2.05421e-09
-2.07833e-09
-2.10109e-09
-2.1214e-09
-2.14188e-09
-2.16042e-09
-2.18299e-09
-2.20757e-09
-2.22788e-09
-2.25072e-09
-2.27292e-09
-2.29301e-09
-2.31827e-09
-2.33931e-09
-2.36274e-09
-2.38361e-09
-2.40611e-09
-2.4271e-09
-2.44875e-09
-2.47127e-09
-2.49356e-09
-2.51731e-09
-2.54062e-09
-2.56384e-09
-2.5884e-09
-2.61372e-09
-2.64235e-09
-2.67635e-09
-2.70927e-09
-2.74186e-09
-2.77571e-09
-2.81396e-09
-2.85902e-09
-2.91186e-09
-2.97453e-09
-3.05047e-09
-3.14312e-09
-3.26008e-09
-3.40798e-09
-3.59275e-09
-3.76717e-09
-2.12722e-09
-4.50069e-09
-4.95575e-09
-9.70592e-10
-3.41438e-11
-9.8882e-10
-1.07109e-09
-1.10591e-09
-1.14368e-09
-1.18484e-09
-1.22664e-09
-1.26804e-09
-1.30696e-09
-1.3432e-09
-1.37905e-09
-1.41655e-09
-1.45304e-09
-1.48654e-09
-1.51514e-09
-1.54168e-09
-1.56251e-09
-1.58705e-09
-1.60978e-09
-1.63139e-09
-1.65505e-09
-1.6756e-09
-1.69815e-09
-1.7209e-09
-1.74383e-09
-1.76527e-09
-1.78866e-09
-1.80892e-09
-1.83129e-09
-1.8522e-09
-1.87427e-09
-1.89648e-09
-1.91694e-09
-1.93907e-09
-1.96163e-09
-1.98445e-09
-2.00616e-09
-2.03083e-09
-2.05354e-09
-2.07688e-09
-2.10007e-09
-2.12067e-09
-2.14131e-09
-2.16069e-09
-2.18114e-09
-2.20465e-09
-2.22594e-09
-2.24788e-09
-2.27036e-09
-2.29237e-09
-2.31586e-09
-2.33806e-09
-2.3604e-09
-2.38159e-09
-2.40428e-09
-2.42564e-09
-2.44847e-09
-2.46927e-09
-2.49338e-09
-2.51589e-09
-2.53949e-09
-2.56406e-09
-2.58707e-09
-2.61443e-09
-2.64109e-09
-2.67569e-09
-2.70795e-09
-2.74079e-09
-2.77512e-09
-2.81276e-09
-2.8579e-09
-2.91124e-09
-2.97444e-09
-3.05036e-09
-3.14399e-09
-3.26165e-09
-3.41003e-09
-3.60119e-09
-3.92412e-09
-5.47068e-09
-4.66853e-09
-4.96381e-09
-1.02594e-09
-1.56776e-09
-1.05405e-09
-1.07295e-09
-1.10584e-09
-1.14288e-09
-1.18387e-09
-1.22585e-09
-1.26695e-09
-1.30595e-09
-1.34206e-09
-1.37815e-09
-1.41631e-09
-1.4525e-09
-1.48569e-09
-1.51508e-09
-1.54188e-09
-1.56214e-09
-1.58594e-09
-1.60951e-09
-1.63127e-09
-1.65417e-09
-1.6754e-09
-1.69806e-09
-1.72011e-09
-1.74298e-09
-1.7637e-09
-1.78741e-09
-1.80819e-09
-1.83029e-09
-1.85124e-09
-1.87284e-09
-1.8957e-09
-1.91624e-09
-1.93826e-09
-1.96149e-09
-1.98474e-09
-2.00635e-09
-2.03052e-09
-2.05336e-09
-2.07668e-09
-2.09952e-09
-2.12008e-09
-2.1398e-09
-2.16057e-09
-2.1814e-09
-2.20323e-09
-2.22406e-09
-2.24705e-09
-2.26946e-09
-2.2912e-09
-2.31417e-09
-2.337e-09
-2.35935e-09
-2.38135e-09
-2.40364e-09
-2.42509e-09
-2.44829e-09
-2.46891e-09
-2.49246e-09
-2.51569e-09
-2.53924e-09
-2.56328e-09
-2.58708e-09
-2.61367e-09
-2.64062e-09
-2.67507e-09
-2.70756e-09
-2.74052e-09
-2.77458e-09
-2.81208e-09
-2.85744e-09
-2.91071e-09
-2.97413e-09
-3.05065e-09
-3.14483e-09
-3.26282e-09
-3.41171e-09
-3.6027e-09
-3.8453e-09
-3.47498e-09
-4.58914e-09
-4.97132e-09
-1.01549e-09
-1.74207e-09
-1.05631e-09
-1.07345e-09
-1.10599e-09
-1.14296e-09
-1.1837e-09
-1.22575e-09
-1.26692e-09
-1.30592e-09
-1.34209e-09
-1.37825e-09
-1.41634e-09
-1.4527e-09
-1.48603e-09
-1.51505e-09
-1.54108e-09
-1.56218e-09
-1.58567e-09
-1.60949e-09
-1.63166e-09
-1.65397e-09
-1.67555e-09
-1.69808e-09
-1.72087e-09
-1.74266e-09
-1.76346e-09
-1.78708e-09
-1.80836e-09
-1.83046e-09
-1.85181e-09
-1.87359e-09
-1.89602e-09
-1.91704e-09
-1.93906e-09
-1.96076e-09
-1.9856e-09
-2.0067e-09
-2.0315e-09
-2.05312e-09
-2.07644e-09
-2.0983e-09
-2.12007e-09
-2.14014e-09
-2.16052e-09
-2.18188e-09
-2.20322e-09
-2.22396e-09
-2.24737e-09
-2.26955e-09
-2.29195e-09
-2.31404e-09
-2.33707e-09
-2.35926e-09
-2.38174e-09
-2.40389e-09
-2.42469e-09
-2.44685e-09
-2.46898e-09
-2.49244e-09
-2.51578e-09
-2.53961e-09
-2.56361e-09
-2.58741e-09
-2.61377e-09
-2.64084e-09
-2.6746e-09
-2.70781e-09
-2.74082e-09
-2.77476e-09
-2.81244e-09
-2.85752e-09
-2.91103e-09
-2.97448e-09
-3.05112e-09
-3.1455e-09
-3.26328e-09
-3.41224e-09
-3.60336e-09
-3.84929e-09
-3.64292e-09
-4.5802e-09
-4.97045e-09
-9.38753e-10
2.50677e-10
-9.74722e-10
-1.07268e-09
-1.10639e-09
-1.14377e-09
-1.18508e-09
-1.22657e-09
-1.26765e-09
-1.30675e-09
-1.34363e-09
-1.37918e-09
-1.41698e-09
-1.45335e-09
-1.48684e-09
-1.51566e-09
-1.54041e-09
-1.56218e-09
-1.58622e-09
-1.60941e-09
-1.63215e-09
-1.65401e-09
-1.67606e-09
-1.69801e-09
-1.72052e-09
-1.74304e-09
-1.7644e-09
-1.78742e-09
-1.80841e-09
-1.83082e-09
-1.85211e-09
-1.87461e-09
-1.89752e-09
-1.91829e-09
-1.93926e-09
-1.96034e-09
-1.98547e-09
-2.00672e-09
-2.02991e-09
-2.05196e-09
-2.07549e-09
-2.09743e-09
-2.11951e-09
-2.13971e-09
-2.16059e-09
-2.18149e-09
-2.20381e-09
-2.22525e-09
-2.24896e-09
-2.2711e-09
-2.29287e-09
-2.31566e-09
-2.3373e-09
-2.36029e-09
-2.38285e-09
-2.40513e-09
-2.42477e-09
-2.44681e-09
-2.46976e-09
-2.49347e-09
-2.51652e-09
-2.54119e-09
-2.56457e-09
-2.58815e-09
-2.61417e-09
-2.64113e-09
-2.6755e-09
-2.70759e-09
-2.74145e-09
-2.77471e-09
-2.81331e-09
-2.8588e-09
-2.9123e-09
-2.97551e-09
-3.0516e-09
-3.14545e-09
-3.26275e-09
-3.41156e-09
-3.60299e-09
-3.91639e-09
-5.2376e-09
-4.63205e-09
-4.95918e-09
-1.10375e-09
-3.06406e-09
-1.13314e-09
-1.07696e-09
-1.10701e-09
-1.14511e-09
-1.18712e-09
-1.22881e-09
-1.2699e-09
-1.30909e-09
-1.34523e-09
-1.38084e-09
-1.41771e-09
-1.45389e-09
-1.48682e-09
-1.51519e-09
-1.54063e-09
-1.56221e-09
-1.58578e-09
-1.60965e-09
-1.63195e-09
-1.65344e-09
-1.67643e-09
-1.69876e-09
-1.721e-09
-1.74305e-09
-1.76431e-09
-1.7878e-09
-1.80852e-09
-1.83146e-09
-1.85209e-09
-1.87589e-09
-1.89778e-09
-1.91974e-09
-1.94189e-09
-1.96069e-09
-1.98551e-09
-2.00584e-09
-2.02859e-09
-2.05127e-09
-2.07552e-09