/*--------------------------------*- C++ -*----------------------------------*\
| =========                 |                                                 |
| \\      /  F ield         | OpenFOAM: The Open Source CFD Toolbox           |
|  \\    /   O peration     | Version:  v1906                                 |
|   \\  /    A nd           | Web:      www.OpenFOAM.com                      |
|    \\/     M anipulation  |                                                 |
\*---------------------------------------------------------------------------*/
FoamFile
{
    version     2.0;
    format      ascii;
    class       volScalarField;
    location    "0.14";
    object      p;
}
// * * * * * * * * * * * * * * * * * * * * * * * * * * * * * * * * * * * * * //

dimensions      [0 2 -2 0 0 0 0];


internalField   nonuniform List<scalar> 
243374
(
-1.76026e-15
-1.59192e-09
-1.00909e-09
-1.00225e-09
-1.04164e-09
-1.08257e-09
-1.11609e-09
-1.1625e-09
-1.20207e-09
-1.24064e-09
-1.27097e-09
-1.30932e-09
-1.34371e-09
-1.37332e-09
-1.4017e-09
-1.42468e-09
-1.44792e-09
-1.47167e-09
-1.49152e-09
-1.51821e-09
-1.54088e-09
-1.56186e-09
-1.58717e-09
-1.60801e-09
-1.62752e-09
-1.65378e-09
-1.66954e-09
-1.69505e-09
-1.71791e-09
-1.74022e-09
-1.76005e-09
-1.78335e-09
-1.80586e-09
-1.82602e-09
-1.84976e-09
-1.87199e-09
-1.89111e-09
-1.91776e-09
-1.93602e-09
-1.95722e-09
-1.97965e-09
-2.00443e-09
-2.02292e-09
-2.04844e-09
-2.06902e-09
-2.0944e-09
-2.11302e-09
-2.13449e-09
-2.15959e-09
-2.18118e-09
-2.20477e-09
-2.22481e-09
-2.24532e-09
-2.26803e-09
-2.2873e-09
-2.3127e-09
-2.33637e-09
-2.35752e-09
-2.37685e-09
-2.39984e-09
-2.42167e-09
-2.44462e-09
-2.47042e-09
-2.4928e-09
-2.52023e-09
-2.54679e-09
-2.57989e-09
-2.60669e-09
-2.64081e-09
-2.68427e-09
-2.72628e-09
-2.77796e-09
-2.84166e-09
-2.92162e-09
-3.01799e-09
-3.13947e-09
-3.29965e-09
-3.46566e-09
-3.10226e-09
-5.04242e-09
-2.08748e-09
-1.283e-09
-1.02066e-09
-1.01624e-09
-1.04792e-09
-1.08738e-09
-1.12956e-09
-1.16878e-09
-1.20819e-09
-1.24384e-09
-1.28226e-09
-1.31911e-09
-1.35172e-09
-1.3808e-09
-1.40801e-09
-1.43257e-09
-1.45704e-09
-1.48006e-09
-1.5e-09
-1.52526e-09
-1.54986e-09
-1.56798e-09
-1.59229e-09
-1.61406e-09
-1.63663e-09
-1.66008e-09
-1.68156e-09
-1.70284e-09
-1.72421e-09
-1.74693e-09
-1.77023e-09
-1.78977e-09
-1.81117e-09
-1.83455e-09
-1.85658e-09
-1.8803e-09
-1.89883e-09
-1.92331e-09
-1.94208e-09
-1.9655e-09
-1.98572e-09
-2.00949e-09
-2.03451e-09
-2.05349e-09
-2.07985e-09
-2.1009e-09
-2.12277e-09
-2.14247e-09
-2.16575e-09
-2.18872e-09
-2.21108e-09
-2.23149e-09
-2.25069e-09
-2.27682e-09
-2.29627e-09
-2.31967e-09
-2.34232e-09
-2.36401e-09
-2.38777e-09
-2.40677e-09
-2.43096e-09
-2.45435e-09
-2.47715e-09
-2.5001e-09
-2.52739e-09
-2.55542e-09
-2.58758e-09
-2.61777e-09
-2.65291e-09
-2.69002e-09
-2.7321e-09
-2.7822e-09
-2.84619e-09
-2.92479e-09
-3.02508e-09
-3.14589e-09
-3.31014e-09
-3.48306e-09
-3.45307e-09
-2.99953e-09
-2.6833e-09
-1.15447e-09
-1.00507e-09
-1.01582e-09
-1.04322e-09
-1.07893e-09
-1.11647e-09
-1.15932e-09
-1.19869e-09
-1.2389e-09
-1.27684e-09
-1.31122e-09
-1.34586e-09
-1.37525e-09
-1.40145e-09
-1.4264e-09
-1.44862e-09
-1.47262e-09
-1.49563e-09
-1.51852e-09
-1.54269e-09
-1.56443e-09
-1.58625e-09
-1.60818e-09
-1.63123e-09
-1.65304e-09
-1.67475e-09
-1.69716e-09
-1.71803e-09
-1.74076e-09
-1.76211e-09
-1.78673e-09
-1.80785e-09
-1.8293e-09
-1.85103e-09
-1.8733e-09
-1.89649e-09
-1.91781e-09
-1.94119e-09
-1.96202e-09
-1.98556e-09
-2.00662e-09
-2.02836e-09
-2.05168e-09
-2.07292e-09
-2.09464e-09
-2.11646e-09
-2.1381e-09
-2.1605e-09
-2.1811e-09
-2.20395e-09
-2.22599e-09
-2.24889e-09
-2.26946e-09
-2.29186e-09
-2.31381e-09
-2.33543e-09
-2.35826e-09
-2.38032e-09
-2.40377e-09
-2.42468e-09
-2.44933e-09
-2.47122e-09
-2.49454e-09
-2.5222e-09
-2.5522e-09
-2.582e-09
-2.6149e-09
-2.65071e-09
-2.68607e-09
-2.73048e-09
-2.78169e-09
-2.84629e-09
-2.92699e-09
-3.0298e-09
-3.15272e-09
-3.31737e-09
-3.50892e-09
-3.60036e-09
-2.39785e-09
-9.03939e-10
4.29601e-09
-7.55936e-10
-9.9039e-10
-1.01194e-09
-1.04007e-09
-1.07546e-09
-1.11382e-09
-1.15601e-09
-1.19711e-09
-1.23738e-09
-1.27715e-09
-1.31533e-09
-1.34762e-09
-1.37622e-09
-1.40237e-09
-1.42703e-09
-1.45135e-09
-1.47247e-09
-1.49557e-09
-1.51873e-09
-1.54202e-09
-1.56385e-09
-1.58608e-09
-1.60876e-09
-1.62962e-09
-1.65342e-09
-1.67544e-09
-1.69659e-09
-1.71808e-09
-1.74103e-09
-1.76256e-09
-1.78528e-09
-1.80721e-09
-1.82945e-09
-1.8498e-09
-1.87218e-09
-1.89457e-09
-1.91594e-09
-1.93942e-09
-1.96121e-09
-1.98414e-09
-2.0052e-09
-2.0266e-09
-2.04978e-09
-2.0719e-09
-2.09494e-09
-2.11584e-09
-2.13704e-09
-2.15981e-09
-2.18155e-09
-2.20416e-09
-2.22583e-09
-2.24825e-09
-2.2704e-09
-2.29137e-09
-2.31406e-09
-2.33588e-09
-2.35808e-09
-2.38064e-09
-2.40284e-09
-2.42512e-09
-2.44817e-09
-2.47185e-09
-2.49625e-09
-2.523e-09
-2.55175e-09
-2.58195e-09
-2.61512e-09
-2.64951e-09
-2.68652e-09
-2.72928e-09
-2.78163e-09
-2.84818e-09
-2.9315e-09
-3.03484e-09
-3.1628e-09
-3.32566e-09
-3.53212e-09
-3.97747e-09
-9.48119e-09
-4.89928e-09
-3.85896e-10
-3.64873e-09
-1.20948e-09
-9.95487e-10
-1.01134e-09
-1.03761e-09
-1.07102e-09
-1.10969e-09
-1.15122e-09
-1.19327e-09
-1.2346e-09
-1.27605e-09
-1.31227e-09
-1.34501e-09
-1.37469e-09
-1.40056e-09
-1.425e-09
-1.44813e-09
-1.47092e-09
-1.49398e-09
-1.51634e-09
-1.53978e-09
-1.56202e-09
-1.58416e-09
-1.60621e-09
-1.62813e-09
-1.65101e-09
-1.67342e-09
-1.69488e-09
-1.71606e-09
-1.7387e-09
-1.76018e-09
-1.78342e-09
-1.80429e-09
-1.82727e-09
-1.84782e-09
-1.86999e-09
-1.89317e-09
-1.91478e-09
-1.93827e-09
-1.96096e-09
-1.98342e-09
-2.00414e-09
-2.02541e-09
-2.0472e-09
-2.06934e-09
-2.09155e-09
-2.11263e-09
-2.13537e-09
-2.15795e-09
-2.17957e-09
-2.20128e-09
-2.2235e-09
-2.24619e-09
-2.26808e-09
-2.28935e-09
-2.31161e-09
-2.33356e-09
-2.3563e-09
-2.37788e-09
-2.40139e-09
-2.42366e-09
-2.44637e-09
-2.46971e-09
-2.49451e-09
-2.52115e-09
-2.55024e-09
-2.58086e-09
-2.61422e-09
-2.64854e-09
-2.68508e-09
-2.72891e-09
-2.78175e-09
-2.84923e-09
-2.93459e-09
-3.04019e-09
-3.17125e-09
-3.33681e-09
-3.54533e-09
-3.68165e-09
-1.60698e-09
-4.73774e-09
-5.11399e-09
6.78581e-10
1.8884e-09
-7.61809e-10
-9.85387e-10
-1.01163e-09
-1.03649e-09
-1.06809e-09
-1.10631e-09
-1.14863e-09
-1.19117e-09
-1.23404e-09
-1.27537e-09
-1.31199e-09
-1.34469e-09
-1.37396e-09
-1.39999e-09
-1.42396e-09
-1.44756e-09
-1.47079e-09
-1.49291e-09
-1.51575e-09
-1.53922e-09
-1.56085e-09
-1.58358e-09
-1.60551e-09
-1.62758e-09
-1.65002e-09
-1.67279e-09
-1.6939e-09
-1.71547e-09
-1.73761e-09
-1.75954e-09
-1.78192e-09
-1.80371e-09
-1.82561e-09
-1.84623e-09
-1.86907e-09
-1.8924e-09
-1.91453e-09
-1.93754e-09
-1.9608e-09
-1.98299e-09
-2.00355e-09
-2.02534e-09
-2.04653e-09
-2.06801e-09
-2.08986e-09
-2.1111e-09
-2.13436e-09
-2.15659e-09
-2.17879e-09
-2.20069e-09
-2.22267e-09
-2.24524e-09
-2.2671e-09
-2.28855e-09
-2.3106e-09
-2.33262e-09
-2.35487e-09
-2.37758e-09
-2.40039e-09
-2.42301e-09
-2.4453e-09
-2.46901e-09
-2.49425e-09
-2.52079e-09
-2.54909e-09
-2.5805e-09
-2.61372e-09
-2.64776e-09
-2.6854e-09
-2.72864e-09
-2.7823e-09
-2.8509e-09
-2.93747e-09
-3.0448e-09
-3.17663e-09
-3.34374e-09
-3.56179e-09
-4.01586e-09
-7.05486e-09
-4.93249e-09
-5.08409e-09
-3.63119e-10
-1.65916e-09
-1.01331e-09
-9.88209e-10
-1.01052e-09
-1.03518e-09
-1.06676e-09
-1.10508e-09
-1.1471e-09
-1.18992e-09
-1.23318e-09
-1.27457e-09
-1.31145e-09
-1.34419e-09
-1.37343e-09
-1.39959e-09
-1.4233e-09
-1.44715e-09
-1.47073e-09
-1.49194e-09
-1.51529e-09
-1.53824e-09
-1.56031e-09
-1.58308e-09
-1.60491e-09
-1.62725e-09
-1.64922e-09
-1.67233e-09
-1.69332e-09
-1.71491e-09
-1.73685e-09
-1.75913e-09
-1.78124e-09
-1.80276e-09
-1.82468e-09
-1.84589e-09
-1.86903e-09
-1.89174e-09
-1.91383e-09
-1.93652e-09
-1.95947e-09
-1.98077e-09
-2.00166e-09
-2.02373e-09
-2.04556e-09
-2.06708e-09
-2.08913e-09
-2.11084e-09
-2.13389e-09
-2.15596e-09
-2.17825e-09
-2.20031e-09
-2.22216e-09
-2.24474e-09
-2.26674e-09
-2.28793e-09
-2.31e-09
-2.33172e-09
-2.3541e-09
-2.37695e-09
-2.39967e-09
-2.42253e-09
-2.44468e-09
-2.46865e-09
-2.49381e-09
-2.52053e-09
-2.54849e-09
-2.58057e-09
-2.6134e-09
-2.64752e-09
-2.68538e-09
-2.7292e-09
-2.78286e-09
-2.85207e-09
-2.93956e-09
-3.04767e-09
-3.18019e-09
-3.34797e-09
-3.56454e-09
-3.80739e-09
-3.39518e-09
-4.79256e-09
-5.14189e-09
-1.11565e-09
-1.798e-09
-1.00894e-09
-9.88261e-10
-1.01068e-09
-1.03543e-09
-1.0668e-09
-1.10515e-09
-1.14713e-09
-1.18997e-09
-1.23302e-09
-1.27475e-09
-1.31179e-09
-1.34396e-09
-1.37377e-09
-1.39993e-09
-1.42367e-09
-1.44743e-09
-1.47075e-09
-1.49201e-09
-1.5154e-09
-1.53814e-09
-1.56058e-09
-1.58318e-09
-1.60461e-09
-1.62747e-09
-1.64923e-09
-1.6722e-09
-1.69352e-09
-1.71496e-09
-1.73702e-09
-1.75931e-09
-1.78138e-09
-1.80301e-09
-1.82455e-09
-1.84642e-09
-1.86948e-09
-1.89197e-09
-1.9136e-09
-1.9367e-09
-1.95981e-09
-1.98151e-09
-2.00227e-09
-2.02364e-09
-2.04562e-09
-2.06721e-09
-2.08943e-09
-2.11122e-09
-2.13412e-09
-2.15612e-09
-2.17858e-09
-2.20041e-09
-2.22231e-09
-2.24478e-09
-2.26696e-09
-2.28818e-09
-2.31005e-09
-2.33212e-09
-2.35427e-09
-2.37719e-09
-2.39976e-09
-2.42281e-09
-2.44483e-09
-2.46873e-09
-2.49408e-09
-2.52091e-09
-2.54917e-09
-2.58094e-09
-2.61363e-09
-2.64789e-09
-2.68588e-09
-2.72984e-09
-2.78362e-09
-2.85296e-09
-2.94067e-09
-3.04873e-09
-3.18127e-09
-3.34922e-09
-3.5658e-09
-3.80422e-09
-3.52953e-09
-4.65028e-09
-5.12014e-09
-2.00531e-09
1.87536e-09
-7.93656e-10
-9.86169e-10
-1.01159e-09
-1.03672e-09
-1.06826e-09
-1.10649e-09
-1.14817e-09
-1.19115e-09
-1.23356e-09
-1.27556e-09
-1.31272e-09
-1.34456e-09
-1.37495e-09
-1.40114e-09
-1.42471e-09
-1.4478e-09
-1.47163e-09
-1.49328e-09
-1.51591e-09
-1.53871e-09
-1.5614e-09
-1.58367e-09
-1.6054e-09
-1.62842e-09
-1.64981e-09
-1.67279e-09
-1.69391e-09
-1.71529e-09
-1.7377e-09
-1.76025e-09
-1.78223e-09
-1.80378e-09
-1.82541e-09
-1.84678e-09
-1.86971e-09
-1.89178e-09
-1.91361e-09
-1.93622e-09
-1.95921e-09
-1.98104e-09
-2.00229e-09
-2.02329e-09
-2.04564e-09
-2.0676e-09
-2.09035e-09
-2.11233e-09
-2.13495e-09
-2.15683e-09
-2.17918e-09
-2.20133e-09
-2.22277e-09
-2.24502e-09
-2.26795e-09
-2.28897e-09
-2.31076e-09
-2.33296e-09
-2.3548e-09
-2.3779e-09
-2.40021e-09
-2.42347e-09
-2.44557e-09
-2.46915e-09
-2.49429e-09
-2.52174e-09
-2.55043e-09
-2.581e-09
-2.61435e-09
-2.64858e-09
-2.68683e-09
-2.73016e-09
-2.78465e-09
-2.8537e-09
-2.94077e-09
-3.048e-09
-3.18023e-09
-3.34772e-09
-3.56622e-09
-4.05911e-09
-7.08817e-09
-4.72804e-09
-5.13396e-09
-1.9058e-09
-3.57229e-09
-1.12092e-09
-9.93216e-10
-1.01174e-09
-1.03795e-09
-1.07134e-09
-1.10996e-09
-1.15055e-09
-1.19337e-09
-1.23453e-09
-1.27649e-09
-1.31298e-09
-1.34485e-09
-1.37565e-09
-1.40141e-09
-1.42579e-09
-1.44864e-09
-1.47123e-09
-1.49402e-09
-1.51655e-09
-1.53872e-09
-1.56214e-09
-1.58347e-09
-1.60629e-09
-1.62831e-09
-1.65059e-09
-1.67258e-09
-1.69457e-09
-1.71637e-09
-1.73785e-09
-1.76084e-09
-1.78237e-09
-1.80505e-09
-1.82747e-09
-1.84831e-09
-1.87106e-09
-1.89231e-09
-1.91463e-09
-1.93691e-09
-1.95935e-09
-1.98117e-09
-2.00322e-09
-2.024e-09
-2.0473e-09
-2.06924e-09
-2.09224e-09
-2.11338e-09
-2.13516e-09
-2.15765e-09
-2.17926e-09
-2.20239e-09
-2.22394e-09
-2.24544e-09
-2.26834e-09
-2.28894e-09
-2.31124e-09
-2.33309e-09
-2.35441e-09
-2.37879e-09
-2.39992e-09
-2.42387e-09
-2.44593e-09
-2.46978e-09
-2.49502e-09
-2.52241e-09
-2.55103e-09
-2.58152e-09
-2.6154e-09
-2.64855e-09
-2.68813e-09
-2.73154e-09
-2.78553e-09
-2.85383e-09
-2.93982e-09
-3.04663e-09
-3.17769e-09
-3.34365e-09
-3.54996e-09
-3.59748e-09
-1.54427e-09
-4.65126e-09
-5.19563e-09
-9.43996e-10
4.3469e-09
-8.04239e-10
-9.91496e-10
-1.01216e-09
-1.04043e-09
-1.07591e-09
-1.114e-09
-1.15523e-09
-1.1971e-09
-1.23828e-09
-1.27911e-09
-1.31649e-09
-1.34878e-09
-1.37746e-09
-1.4033e-09
-1.42738e-09
-1.45045e-09
-1.47665e-09
-1.49612e-09
-1.51816e-09
-1.54132e-09
-1.56341e-09
-1.58485e-09
-1.60823e-09
-1.63227e-09
-1.65403e-09
-1.67656e-09
-1.69673e-09
-1.71757e-09
-1.73996e-09
-1.76228e-09
-1.78671e-09
-1.80707e-09
-1.83086e-09
-1.85084e-09
-1.87393e-09
-1.89399e-09
-1.91601e-09
-1.93777e-09
-1.95996e-09
-1.98171e-09
-2.00459e-09
-2.02651e-09
-2.04967e-09
-2.07207e-09
-2.09418e-09
-2.11515e-09
-2.13713e-09
-2.161e-09
-2.18184e-09
-2.20319e-09
-2.22494e-09
-2.24799e-09
-2.27045e-09
-2.29136e-09
-2.31375e-09
-2.33577e-09
-2.35631e-09
-2.38008e-09
-2.4045e-09
-2.4253e-09
-2.44827e-09
-2.47228e-09
-2.4974e-09
-2.5235e-09
-2.55406e-09
-2.58312e-09
-2.6183e-09
-2.65062e-09
-2.68945e-09
-2.73343e-09
-2.78695e-09
-2.85437e-09
-2.93903e-09
-3.04262e-09
-3.17209e-09
-3.33544e-09
-3.54236e-09
-4.03431e-09
-9.44025e-09
-4.84989e-09
-5.11435e-09
-8.77972e-10
-2.74694e-09
-1.16948e-09
-1.00707e-09
-1.01595e-09
-1.04407e-09
-1.07956e-09
-1.11733e-09
-1.15643e-09
-1.19865e-09
-1.23869e-09
-1.27619e-09
-1.31248e-09
-1.34451e-09
-1.37475e-09
-1.40004e-09
-1.42617e-09
-1.4497e-09
-1.4703e-09
-1.49333e-09
-1.51877e-09
-1.54133e-09
-1.56375e-09
-1.58545e-09
-1.60728e-09
-1.62904e-09
-1.65077e-09
-1.67241e-09
-1.69576e-09
-1.7177e-09
-1.73971e-09
-1.76283e-09
-1.78284e-09
-1.80567e-09
-1.82787e-09
-1.85011e-09
-1.87049e-09
-1.89495e-09
-1.9167e-09
-1.9387e-09
-1.96012e-09
-1.98179e-09
-2.00511e-09
-2.02752e-09
-2.04832e-09
-2.07144e-09
-2.09246e-09
-2.11459e-09
-2.13672e-09
-2.15857e-09
-2.18024e-09
-2.20275e-09
-2.22533e-09
-2.24541e-09
-2.26781e-09
-2.2903e-09
-2.31168e-09
-2.33365e-09
-2.35617e-09
-2.37985e-09
-2.39991e-09
-2.42585e-09
-2.44542e-09
-2.47185e-09
-2.49637e-09
-2.52216e-09
-2.55161e-09
-2.58258e-09
-2.6149e-09
-2.65078e-09
-2.69045e-09
-2.73394e-09
-2.78815e-09
-2.85413e-09
-2.9367e-09
-3.03895e-09
-3.16411e-09
-3.32968e-09
-3.52271e-09
-3.62486e-09
-2.45877e-09
-4.65642e-09
-2.12012e-09
-1.29537e-09
-1.02139e-09
-1.01612e-09
-1.05124e-09
-1.08801e-09
-1.12818e-09
-1.16731e-09
-1.20764e-09
-1.2471e-09
-1.2836e-09
-1.31946e-09
-1.3519e-09
-1.38215e-09
-1.40654e-09
-1.43283e-09
-1.45588e-09
-1.47895e-09
-1.50084e-09
-1.52599e-09
-1.54889e-09
-1.56919e-09
-1.59224e-09
-1.61368e-09
-1.63594e-09
-1.65772e-09
-1.68086e-09
-1.70265e-09
-1.72315e-09
-1.74577e-09
-1.76714e-09
-1.79161e-09
-1.81226e-09
-1.83436e-09
-1.85633e-09
-1.87898e-09
-1.90156e-09
-1.92399e-09
-1.9434e-09
-1.96499e-09
-1.98871e-09
-2.01213e-09
-2.03293e-09
-2.0544e-09
-2.07774e-09
-2.10161e-09
-2.12116e-09
-2.14327e-09
-2.16533e-09
-2.18603e-09
-2.2102e-09
-2.23059e-09
-2.25171e-09
-2.2756e-09
-2.29791e-09
-2.31865e-09
-2.34058e-09
-2.36412e-09
-2.38575e-09
-2.40674e-09
-2.43063e-09
-2.45327e-09
-2.47809e-09
-2.50264e-09
-2.53062e-09
-2.55653e-09
-2.58698e-09
-2.6222e-09
-2.65796e-09
-2.69463e-09
-2.73855e-09
-2.79072e-09
-2.85459e-09
-2.93463e-09
-3.03768e-09
-3.15975e-09
-3.32355e-09
-3.49891e-09
-3.47818e-09
-3.03599e-09
-2.39668e-11
-1.59824e-09
-1.01032e-09
-1.0037e-09
-1.04199e-09
-1.08143e-09
-1.11888e-09
-1.15618e-09
-1.20143e-09
-1.24125e-09
-1.27836e-09
-1.31258e-09
-1.3414e-09
-1.37154e-09
-1.39915e-09
-1.42156e-09
-1.44853e-09
-1.47038e-09
-1.49474e-09
-1.51997e-09
-1.54017e-09
-1.55949e-09
-1.58128e-09
-1.6078e-09
-1.63199e-09
-1.65053e-09
-1.67077e-09
-1.69569e-09
-1.71229e-09
-1.73913e-09
-1.76404e-09
-1.78219e-09
-1.806e-09
-1.82988e-09
-1.84912e-09
-1.8706e-09
-1.89757e-09
-1.91885e-09
-1.9395e-09
-1.96015e-09
-1.98152e-09
-2.00233e-09
-2.02712e-09
-2.04921e-09
-2.07069e-09
-2.08661e-09
-2.11544e-09
-2.13479e-09
-2.16098e-09
-2.18028e-09
-2.20001e-09
-2.22094e-09
-2.24684e-09
-2.27073e-09
-2.2879e-09
-2.31223e-09
-2.33414e-09
-2.35744e-09
-2.37694e-09
-2.39971e-09
-2.42441e-09
-2.44733e-09
-2.47178e-09
-2.49874e-09
-2.51726e-09
-2.55038e-09
-2.57776e-09
-2.61607e-09
-2.64812e-09
-2.68754e-09
-2.73145e-09
-2.78813e-09
-2.84981e-09
-2.93153e-09
-3.03219e-09
-3.15467e-09
-3.31511e-09
-3.48335e-09
-3.12495e-09
-5.07513e-09
-5.53895e-11
-1.07545e-09
-1.02035e-09
-1.03838e-09
-1.05949e-09
-1.09319e-09
-1.12701e-09
-1.16681e-09
-1.20407e-09
-1.24023e-09
-1.27128e-09
-1.30817e-09
-1.34032e-09
-1.37046e-09
-1.39818e-09
-1.42312e-09
-1.44576e-09
-1.4717e-09
-1.49911e-09
-1.51703e-09
-1.53799e-09
-1.56275e-09
-1.5848e-09
-1.60316e-09
-1.63108e-09
-1.6519e-09
-1.67455e-09
-1.69175e-09
-1.71649e-09
-1.7423e-09
-1.75954e-09
-1.78379e-09
-1.80267e-09
-1.82596e-09
-1.8513e-09
-1.87162e-09
-1.89236e-09
-1.91213e-09
-1.93768e-09
-1.96019e-09
-1.97798e-09
-2.00251e-09
-2.02409e-09
-2.04707e-09
-2.07184e-09
-2.09013e-09
-2.1147e-09
-2.13246e-09
-2.15834e-09
-2.18039e-09
-2.19909e-09
-2.22518e-09
-2.2461e-09
-2.26778e-09
-2.28702e-09
-2.31516e-09
-2.33382e-09
-2.35019e-09
-2.37564e-09
-2.40172e-09
-2.42219e-09
-2.44484e-09
-2.46663e-09
-2.4928e-09
-2.51401e-09
-2.54278e-09
-2.5696e-09
-2.59648e-09
-2.63431e-09
-2.66554e-09
-2.7029e-09
-2.75176e-09
-2.80387e-09
-2.87049e-09
-2.94786e-09
-3.04486e-09
-3.17638e-09
-3.33259e-09
-3.4738e-09
-4.79408e-09
-1.95615e-09
-2.56393e-09
-1.00622e-09
-1.01533e-09
-1.04298e-09
-1.07213e-09
-1.1031e-09
-1.13643e-09
-1.17164e-09
-1.20606e-09
-1.24174e-09
-1.27768e-09
-1.31167e-09
-1.3438e-09
-1.37659e-09
-1.40541e-09
-1.42908e-09
-1.45491e-09
-1.47627e-09
-1.49998e-09
-1.5224e-09
-1.54499e-09
-1.56746e-09
-1.58948e-09
-1.61305e-09
-1.63453e-09
-1.65609e-09
-1.6785e-09
-1.70165e-09
-1.72189e-09
-1.74497e-09
-1.76591e-09
-1.78773e-09
-1.80843e-09
-1.83368e-09
-1.85476e-09
-1.87447e-09
-1.89791e-09
-1.91965e-09
-1.94181e-09
-1.96298e-09
-1.98791e-09
-2.0083e-09
-2.028e-09
-2.05426e-09
-2.07399e-09
-2.09526e-09
-2.11943e-09
-2.14104e-09
-2.16654e-09
-2.18342e-09
-2.20676e-09
-2.23015e-09
-2.24982e-09
-2.2735e-09
-2.29822e-09
-2.31546e-09
-2.33935e-09
-2.36116e-09
-2.38111e-09
-2.40495e-09
-2.43122e-09
-2.45173e-09
-2.47136e-09
-2.49696e-09
-2.52394e-09
-2.54663e-09
-2.57536e-09
-2.60757e-09
-2.63461e-09
-2.66787e-09
-2.7077e-09
-2.75209e-09
-2.80639e-09
-2.87378e-09
-2.95305e-09
-3.05781e-09
-3.19378e-09
-3.37036e-09
-3.5901e-09
-2.34112e-09
-3.99989e-09
-9.14418e-10
6.1212e-10
-9.14745e-10
-1.00546e-09
-1.03553e-09
-1.06524e-09
-1.09637e-09
-1.12756e-09
-1.16218e-09
-1.19764e-09
-1.23418e-09
-1.27226e-09
-1.30948e-09
-1.34086e-09
-1.37218e-09
-1.39977e-09
-1.42578e-09
-1.44951e-09
-1.47408e-09
-1.49671e-09
-1.52014e-09
-1.54012e-09
-1.56296e-09
-1.58775e-09
-1.6093e-09
-1.63093e-09
-1.65103e-09
-1.67347e-09
-1.69781e-09
-1.72045e-09
-1.74186e-09
-1.75818e-09
-1.78288e-09
-1.80789e-09
-1.82976e-09
-1.85207e-09
-1.8704e-09
-1.89407e-09
-1.91542e-09
-1.9369e-09
-1.96e-09
-1.98322e-09
-2.00256e-09
-2.02584e-09
-2.04886e-09
-2.07173e-09
-2.0908e-09
-2.11794e-09
-2.13847e-09
-2.16041e-09
-2.18297e-09
-2.20042e-09
-2.22696e-09
-2.24959e-09
-2.27066e-09
-2.29064e-09
-2.31373e-09
-2.33366e-09
-2.35824e-09
-2.37834e-09
-2.40246e-09
-2.42375e-09
-2.44611e-09
-2.47078e-09
-2.49299e-09
-2.51844e-09
-2.5469e-09
-2.57081e-09
-2.60407e-09
-2.63368e-09
-2.66781e-09
-2.70644e-09
-2.75586e-09
-2.8126e-09
-2.88536e-09
-2.97103e-09
-3.08163e-09
-3.22503e-09
-3.41151e-09
-3.72056e-09
-5.55536e-09
-4.33141e-09
-4.51955e-09
-9.03612e-10
-5.93375e-10
-9.05292e-10
-9.99068e-10
-1.0266e-09
-1.05745e-09
-1.08982e-09
-1.12013e-09
-1.15898e-09
-1.19616e-09
-1.23356e-09
-1.27306e-09
-1.30373e-09
-1.34184e-09
-1.37354e-09
-1.39962e-09
-1.4272e-09
-1.44792e-09
-1.47513e-09
-1.49828e-09
-1.51982e-09
-1.54023e-09
-1.56142e-09
-1.5889e-09
-1.6111e-09
-1.63181e-09
-1.65177e-09
-1.672e-09
-1.69807e-09
-1.72063e-09
-1.73992e-09
-1.75903e-09
-1.78277e-09
-1.80884e-09
-1.83047e-09
-1.8521e-09
-1.86982e-09
-1.89541e-09
-1.91581e-09
-1.93452e-09
-1.95421e-09
-1.98346e-09
-2.0017e-09
-2.02542e-09
-2.05096e-09
-2.06844e-09
-2.0914e-09
-2.11655e-09
-2.13913e-09
-2.16167e-09
-2.17812e-09
-2.2028e-09
-2.22633e-09
-2.24973e-09
-2.26638e-09
-2.2922e-09
-2.31524e-09
-2.33354e-09
-2.35954e-09
-2.37583e-09
-2.40096e-09
-2.42463e-09
-2.44531e-09
-2.47188e-09
-2.49203e-09
-2.52037e-09
-2.54438e-09
-2.57381e-09
-2.6046e-09
-2.63481e-09
-2.67082e-09
-2.71263e-09
-2.76284e-09
-2.82265e-09
-2.89811e-09
-2.98781e-09
-3.10451e-09
-3.2546e-09
-3.44693e-09
-3.76777e-09
-4.39832e-09
-4.33402e-09
-4.79265e-09
-9.13185e-10
-4.09886e-10
-8.61444e-10
-9.92388e-10
-1.01755e-09
-1.05348e-09
-1.09176e-09
-1.13429e-09
-1.17115e-09
-1.21014e-09
-1.24813e-09
-1.28137e-09
-1.32059e-09
-1.34857e-09
-1.37817e-09
-1.4087e-09
-1.43111e-09
-1.45952e-09
-1.47878e-09
-1.50135e-09
-1.52399e-09
-1.54748e-09
-1.575e-09
-1.59296e-09
-1.61516e-09
-1.63563e-09
-1.66181e-09
-1.68564e-09
-1.70079e-09
-1.72448e-09
-1.74703e-09
-1.77254e-09
-1.79284e-09
-1.81307e-09
-1.83279e-09
-1.85688e-09
-1.88458e-09
-1.89872e-09
-1.92287e-09
-1.94649e-09
-1.96924e-09
-1.98973e-09
-2.01293e-09
-2.03032e-09
-2.05521e-09
-2.08334e-09
-2.10302e-09
-2.12045e-09
-2.14224e-09
-2.16602e-09
-2.19349e-09
-2.21208e-09
-2.23127e-09
-2.25316e-09
-2.28065e-09
-2.29577e-09
-2.31871e-09
-2.3449e-09
-2.36386e-09
-2.38891e-09
-2.40609e-09
-2.4307e-09
-2.45516e-09
-2.47527e-09
-2.50621e-09
-2.52598e-09
-2.55261e-09
-2.58762e-09
-2.61484e-09
-2.65297e-09
-2.69065e-09
-2.7327e-09
-2.78597e-09
-2.84918e-09
-2.92607e-09
-3.02188e-09
-3.14143e-09
-3.29309e-09
-3.48194e-09
-3.8476e-09
-4.62313e-09
-4.45238e-09
-5.00589e-09
-1.01484e-09
-2.16521e-09
-1.03994e-09
-1.00318e-09
-1.01874e-09
-1.06397e-09
-1.10461e-09
-1.14845e-09
-1.18652e-09
-1.2244e-09
-1.25986e-09
-1.29532e-09
-1.32742e-09
-1.3579e-09
-1.387e-09
-1.41475e-09
-1.43842e-09
-1.4636e-09
-1.48575e-09
-1.51386e-09
-1.53089e-09
-1.56001e-09
-1.57792e-09
-1.59761e-09
-1.6213e-09
-1.6455e-09
-1.66606e-09
-1.69062e-09
-1.71183e-09
-1.73067e-09
-1.75227e-09
-1.77685e-09
-1.80086e-09
-1.81975e-09
-1.84494e-09
-1.86291e-09
-1.88911e-09
-1.9109e-09
-1.92988e-09
-1.95849e-09
-1.97877e-09
-2.00164e-09
-2.02423e-09
-2.04328e-09
-2.06351e-09
-2.08819e-09
-2.1068e-09
-2.13342e-09
-2.15285e-09
-2.17126e-09
-2.19791e-09
-2.21699e-09
-2.23607e-09
-2.26494e-09
-2.28366e-09
-2.30612e-09
-2.32464e-09
-2.34868e-09
-2.36903e-09
-2.39312e-09
-2.4159e-09
-2.43889e-09
-2.46585e-09
-2.48289e-09
-2.51052e-09
-2.53207e-09
-2.56406e-09
-2.59428e-09
-2.63165e-09
-2.66788e-09
-2.70398e-09
-2.74889e-09
-2.80182e-09
-2.86404e-09
-2.94134e-09
-3.03714e-09
-3.16042e-09
-3.31724e-09
-3.50336e-09
-3.71365e-09
-2.92437e-09
-4.36648e-09
-5.08091e-09
-1.02241e-09
-2.02667e-09
-1.05301e-09
-1.00049e-09
-1.02221e-09
-1.06494e-09
-1.10502e-09
-1.14652e-09
-1.1861e-09
-1.2229e-09
-1.25837e-09
-1.29143e-09
-1.32426e-09
-1.35531e-09
-1.38409e-09
-1.41116e-09
-1.43456e-09
-1.45801e-09
-1.48162e-09
-1.50733e-09
-1.52739e-09
-1.55242e-09
-1.57152e-09
-1.59487e-09
-1.61734e-09
-1.63962e-09
-1.66157e-09
-1.68334e-09
-1.70596e-09
-1.72745e-09
-1.7483e-09
-1.77289e-09
-1.79736e-09
-1.81794e-09
-1.83953e-09
-1.8614e-09
-1.88393e-09
-1.90859e-09
-1.92821e-09
-1.95498e-09
-1.97638e-09
-1.99914e-09
-2.02107e-09
-2.04151e-09
-2.05996e-09
-2.08209e-09
-2.102e-09
-2.1266e-09
-2.1479e-09
-2.16818e-09
-2.19008e-09
-2.21218e-09
-2.23196e-09
-2.25899e-09
-2.27815e-09
-2.30032e-09
-2.32124e-09
-2.34309e-09
-2.36483e-09
-2.39028e-09
-2.4129e-09
-2.43446e-09
-2.45862e-09
-2.47855e-09
-2.50367e-09
-2.52958e-09
-2.56271e-09
-2.59371e-09
-2.62729e-09
-2.66494e-09
-2.70347e-09
-2.74939e-09
-2.80306e-09
-2.86661e-09
-2.94479e-09
-3.04259e-09
-3.16915e-09
-3.33121e-09
-3.52198e-09
-3.71909e-09
-3.0783e-09
-4.32649e-09
-5.1292e-09
-9.94038e-10
-1.20194e-09
-9.60474e-10
-9.90531e-10
-1.0253e-09
-1.06458e-09
-1.10433e-09
-1.14513e-09
-1.1851e-09
-1.22197e-09
-1.25713e-09
-1.29152e-09
-1.32665e-09
-1.35807e-09
-1.38778e-09
-1.41546e-09
-1.43861e-09
-1.46352e-09
-1.48528e-09
-1.50683e-09
-1.53005e-09
-1.55242e-09
-1.57381e-09
-1.59631e-09
-1.62032e-09
-1.64107e-09
-1.66608e-09
-1.68641e-09
-1.70781e-09
-1.72934e-09
-1.75256e-09
-1.77388e-09
-1.79683e-09
-1.81843e-09
-1.84047e-09
-1.8613e-09
-1.88342e-09
-1.90542e-09
-1.92794e-09
-1.9517e-09
-1.97429e-09
-1.9967e-09
-2.01859e-09
-2.03896e-09
-2.05889e-09
-2.08217e-09
-2.10688e-09
-2.12615e-09
-2.14906e-09
-2.17057e-09
-2.19007e-09
-2.21679e-09
-2.23659e-09
-2.25966e-09
-2.282e-09
-2.30189e-09
-2.32463e-09
-2.34773e-09
-2.36809e-09
-2.39115e-09
-2.4138e-09
-2.43744e-09
-2.4585e-09
-2.48277e-09
-2.50828e-09
-2.5347e-09
-2.56404e-09
-2.59842e-09
-2.63044e-09
-2.66635e-09
-2.70555e-09
-2.75051e-09
-2.80368e-09
-2.86788e-09
-2.94743e-09
-3.04555e-09
-3.17279e-09
-3.33728e-09
-3.54331e-09
-3.82849e-09
-3.948e-09
-4.65703e-09
-5.14704e-09
-9.91992e-10
-2.4998e-09
-1.0678e-09
-9.9583e-10
-1.02226e-09
-1.06202e-09
-1.10235e-09
-1.14288e-09
-1.18221e-09
-1.21943e-09
-1.25499e-09
-1.2896e-09
-1.3249e-09
-1.35781e-09
-1.38745e-09
-1.41276e-09
-1.43728e-09
-1.46058e-09
-1.48336e-09
-1.50624e-09
-1.52724e-09
-1.55106e-09
-1.57291e-09
-1.59521e-09
-1.61855e-09
-1.63955e-09
-1.66281e-09
-1.68305e-09
-1.70672e-09
-1.72726e-09
-1.74982e-09
-1.77125e-09
-1.79479e-09
-1.8158e-09
-1.83768e-09
-1.85871e-09
-1.88134e-09
-1.90309e-09
-1.92698e-09
-1.94968e-09
-1.97241e-09
-1.99444e-09
-2.01663e-09
-2.03659e-09
-2.05646e-09
-2.07947e-09
-2.10337e-09
-2.12405e-09
-2.14725e-09
-2.16907e-09
-2.18948e-09
-2.21349e-09
-2.2338e-09
-2.25813e-09
-2.27872e-09
-2.3012e-09
-2.32245e-09
-2.34447e-09
-2.36628e-09
-2.38914e-09
-2.4123e-09
-2.43513e-09
-2.45747e-09
-2.48023e-09
-2.50532e-09
-2.53283e-09
-2.56417e-09
-2.59712e-09
-2.63036e-09
-2.66563e-09
-2.70492e-09
-2.75054e-09
-2.80432e-09
-2.86903e-09
-2.94877e-09
-3.04815e-09
-3.1761e-09
-3.34072e-09
-3.55102e-09
-3.76142e-09
-2.68623e-09
-4.6245e-09
-5.154e-09
-8.8783e-10
-1.29683e-10
-9.05599e-10
-9.87854e-10
-1.02275e-09
-1.06054e-09
-1.10078e-09
-1.14099e-09
-1.18047e-09
-1.21795e-09
-1.2535e-09
-1.28916e-09
-1.32473e-09
-1.35789e-09
-1.38721e-09
-1.41308e-09
-1.43822e-09
-1.45981e-09
-1.48378e-09
-1.50656e-09
-1.52695e-09
-1.55106e-09
-1.57229e-09
-1.59522e-09
-1.61746e-09
-1.6396e-09
-1.66197e-09
-1.68375e-09
-1.70541e-09
-1.72755e-09
-1.74917e-09
-1.77099e-09
-1.79336e-09
-1.81473e-09
-1.8352e-09
-1.85788e-09
-1.88067e-09
-1.90233e-09
-1.92628e-09
-1.94903e-09
-1.97143e-09
-1.99345e-09
-2.0158e-09
-2.03521e-09
-2.05568e-09
-2.07806e-09
-2.10148e-09
-2.12315e-09
-2.14588e-09
-2.16764e-09
-2.18939e-09
-2.21266e-09
-2.23429e-09
-2.25684e-09
-2.278e-09
-2.30005e-09
-2.32215e-09
-2.34451e-09
-2.36562e-09
-2.38919e-09
-2.41153e-09
-2.43455e-09
-2.45752e-09
-2.48048e-09
-2.50609e-09
-2.53271e-09
-2.56434e-09
-2.59635e-09
-2.63034e-09
-2.66598e-09
-2.70495e-09
-2.75064e-09
-2.80483e-09
-2.8701e-09
-2.95001e-09
-3.05038e-09
-3.17908e-09
-3.34464e-09
-3.56137e-09
-3.91791e-09
-5.15756e-09
-4.7842e-09
-5.17265e-09
-9.35106e-10
-1.40382e-09
-9.79794e-10
-9.89939e-10
-1.02254e-09
-1.0599e-09
-1.10004e-09
-1.14036e-09
-1.17963e-09
-1.21723e-09
-1.25275e-09
-1.28859e-09
-1.32456e-09
-1.35759e-09
-1.3866e-09
-1.41298e-09
-1.43833e-09
-1.45963e-09
-1.48279e-09
-1.50627e-09
-1.52691e-09
-1.55059e-09
-1.57186e-09
-1.59502e-09
-1.61693e-09
-1.6394e-09
-1.66087e-09
-1.68304e-09
-1.70502e-09
-1.7271e-09
-1.74849e-09
-1.77003e-09
-1.79249e-09
-1.81387e-09
-1.83454e-09
-1.85755e-09
-1.88064e-09
-1.90214e-09
-1.92597e-09
-1.9488e-09
-1.97123e-09
-1.9933e-09
-2.01537e-09
-2.03492e-09
-2.05537e-09
-2.07781e-09
-2.10036e-09
-2.12195e-09
-2.14519e-09
-2.16731e-09
-2.18885e-09
-2.21161e-09
-2.23392e-09
-2.25636e-09
-2.27786e-09
-2.29952e-09
-2.32195e-09
-2.34414e-09
-2.36588e-09
-2.38851e-09
-2.41147e-09
-2.43406e-09
-2.45689e-09
-2.48094e-09
-2.50618e-09
-2.53286e-09
-2.564e-09
-2.59619e-09
-2.63055e-09
-2.66624e-09
-2.70502e-09
-2.75096e-09
-2.8052e-09
-2.87074e-09
-2.95122e-09
-3.05226e-09
-3.18127e-09
-3.3476e-09
-3.564e-09
-3.83106e-09
-3.64046e-09
-4.71582e-09
-5.18509e-09
-9.34825e-10
-1.54694e-09
-9.86475e-10
-9.90328e-10
-1.02262e-09
-1.05999e-09
-1.09997e-09
-1.1403e-09
-1.17963e-09
-1.21721e-09
-1.25276e-09
-1.28866e-09
-1.32455e-09
-1.35768e-09
-1.38671e-09
-1.4129e-09
-1.43766e-09
-1.45959e-09
-1.4826e-09
-1.50623e-09
-1.52715e-09
-1.55055e-09
-1.57189e-09
-1.59496e-09
-1.61712e-09
-1.63936e-09
-1.66064e-09
-1.68307e-09
-1.70502e-09
-1.72728e-09
-1.74874e-09
-1.77025e-09
-1.79226e-09
-1.81416e-09
-1.83467e-09
-1.85686e-09
-1.88083e-09
-1.90194e-09
-1.92599e-09
-1.94855e-09
-1.97129e-09
-1.99255e-09
-2.01518e-09
-2.03511e-09
-2.05525e-09
-2.07797e-09
-2.1e-09
-2.12173e-09
-2.14527e-09
-2.16727e-09
-2.18942e-09
-2.21133e-09
-2.23411e-09
-2.25624e-09
-2.27796e-09
-2.29934e-09
-2.3218e-09
-2.34349e-09
-2.36605e-09
-2.38866e-09
-2.41142e-09
-2.43425e-09
-2.45705e-09
-2.48115e-09
-2.50643e-09
-2.53324e-09
-2.56373e-09
-2.59627e-09
-2.63101e-09
-2.66667e-09
-2.70568e-09
-2.75148e-09
-2.80595e-09
-2.8716e-09
-2.95222e-09
-3.05346e-09
-3.18244e-09
-3.34892e-09
-3.56563e-09
-3.83931e-09
-3.7774e-09
-4.72188e-09
-5.18924e-09
-8.5939e-10
-3.1805e-11
-8.94711e-10
-9.89106e-10
-1.02297e-09
-1.06077e-09
-1.10092e-09
-1.141e-09
-1.18024e-09
-1.21781e-09
-1.25378e-09
-1.28924e-09
-1.32492e-09
-1.35799e-09
-1.38711e-09
-1.41335e-09
-1.43685e-09
-1.45951e-09
-1.48303e-09
-1.50613e-09
-1.52768e-09
-1.55063e-09
-1.57248e-09
-1.59477e-09
-1.61699e-09
-1.6396e-09
-1.66139e-09
-1.68331e-09
-1.70512e-09
-1.72738e-09
-1.74919e-09
-1.77051e-09
-1.79325e-09
-1.81466e-09
-1.83511e-09
-1.85656e-09
-1.88079e-09
-1.90183e-09
-1.92529e-09
-1.94788e-09
-1.97098e-09
-1.99264e-09
-2.0148e-09
-2.03523e-09
-2.05526e-09
-2.07832e-09
-2.10042e-09
-2.12248e-09
-2.14631e-09
-2.168e-09
-2.19026e-09
-2.21201e-09
-2.23437e-09
-2.25691e-09
-2.27887e-09
-2.30017e-09
-2.32187e-09
-2.34361e-09
-2.36673e-09
-2.3895e-09
-2.41169e-09
-2.43513e-09
-2.45758e-09
-2.48134e-09
-2.50656e-09
-2.5336e-09
-2.56458e-09
-2.59605e-09
-2.63163e-09
-2.66683e-09
-2.70652e-09
-2.75252e-09
-2.80709e-09
-2.87265e-09
-2.95292e-09
-3.05373e-09
-3.18233e-09
-3.34859e-09
-3.56604e-09
-3.91624e-09
-5.09264e-09
-4.76533e-09
-5.18041e-09
-1.00303e-09
-2.47164e-09
-1.04582e-09
-9.93749e-10
-1.02352e-09
-1.06189e-09
-1.10255e-09
-1.14287e-09
-1.18204e-09
-1.21944e-09
-1.25483e-09
-1.2901e-09
-1.3251e-09
-1.35804e-09
-1.3869e-09
-1.41319e-09
-1.43678e-09
-1.45928e-09
-1.48275e-09
-1.50636e-09
-1.52793e-09
-1.55029e-09
-1.5729e-09
-1.59477e-09
-1.61742e-09
-1.63953e-09
-1.66135e-09
-1.68334e-09
-1.70523e-09
-1.72714e-09
-1.74881e-09
-1.77058e-09
-1.79361e-09
-1.81547e-09
-1.837e-09
-1.85748e-09
-1.88176e-09
-1.90214e-09
-1.92487e-09
-1.94783e-09
-1.97127e-09
-1.99301e-09
-2.01491e-09