/*--------------------------------*- C++ -*----------------------------------*\
| =========                 |                                                 |
| \\      /  F ield         | OpenFOAM: The Open Source CFD Toolbox           |
|  \\    /   O peration     | Version:  v1906                                 |
|   \\  /    A nd           | Web:      www.OpenFOAM.com                      |
|    \\/     M anipulation  |                                                 |
\*---------------------------------------------------------------------------*/
FoamFile
{
    version     2.0;
    format      ascii;
    class       volScalarField;
    location    "0.44";
    object      p;
}
// * * * * * * * * * * * * * * * * * * * * * * * * * * * * * * * * * * * * * //

dimensions      [0 2 -2 0 0 0 0];


internalField   nonuniform List<scalar> 
243374
(
-1.03887e-15
-8.46452e-10
-6.16279e-10
-6.34634e-10
-6.72505e-10
-7.08534e-10
-7.43362e-10
-7.78228e-10
-8.11367e-10
-8.42685e-10
-8.70886e-10
-8.99818e-10
-9.26166e-10
-9.51573e-10
-9.76203e-10
-9.99443e-10
-1.02281e-09
-1.04553e-09
-1.06716e-09
-1.0906e-09
-1.11313e-09
-1.13538e-09
-1.1577e-09
-1.17962e-09
-1.20094e-09
-1.22423e-09
-1.24524e-09
-1.26761e-09
-1.29002e-09
-1.31197e-09
-1.33414e-09
-1.35603e-09
-1.37822e-09
-1.39947e-09
-1.42241e-09
-1.44466e-09
-1.46567e-09
-1.48858e-09
-1.50977e-09
-1.53225e-09
-1.55367e-09
-1.57645e-09
-1.59727e-09
-1.62016e-09
-1.64177e-09
-1.6642e-09
-1.68517e-09
-1.7067e-09
-1.72919e-09
-1.75101e-09
-1.77287e-09
-1.79383e-09
-1.81487e-09
-1.83697e-09
-1.85745e-09
-1.87982e-09
-1.90184e-09
-1.92352e-09
-1.94588e-09
-1.96896e-09
-1.99349e-09
-2.02064e-09
-2.05182e-09
-2.08782e-09
-2.1325e-09
-2.18893e-09
-2.2638e-09
-2.36363e-09
-2.50173e-09
-2.69562e-09
-2.96097e-09
-3.34167e-09
-3.87692e-09
-4.63066e-09
-5.68092e-09
-7.14278e-09
-9.17423e-09
-1.19389e-08
-1.53952e-08
-2.1494e-08
-8.11945e-10
-7.21831e-10
-6.2579e-10
-6.42952e-10
-6.76738e-10
-7.11893e-10
-7.46726e-10
-7.80803e-10
-8.13096e-10
-8.44365e-10
-8.74405e-10
-9.01591e-10
-9.27761e-10
-9.52735e-10
-9.77209e-10
-1.00093e-09
-1.02424e-09
-1.04715e-09
-1.06992e-09
-1.09213e-09
-1.11484e-09
-1.13696e-09
-1.15897e-09
-1.181e-09
-1.20357e-09
-1.22545e-09
-1.24745e-09
-1.26946e-09
-1.29141e-09
-1.31342e-09
-1.33532e-09
-1.35807e-09
-1.37977e-09
-1.40208e-09
-1.42374e-09
-1.44654e-09
-1.46827e-09
-1.4902e-09
-1.51192e-09
-1.53427e-09
-1.5558e-09
-1.57803e-09
-1.60041e-09
-1.62166e-09
-1.64405e-09
-1.66543e-09
-1.68732e-09
-1.70933e-09
-1.7307e-09
-1.75276e-09
-1.77411e-09
-1.79543e-09
-1.81692e-09
-1.83852e-09
-1.86029e-09
-1.88153e-09
-1.90315e-09
-1.92532e-09
-1.94801e-09
-1.97158e-09
-1.99665e-09
-2.02442e-09
-2.05509e-09
-2.0921e-09
-2.13743e-09
-2.19571e-09
-2.27209e-09
-2.37563e-09
-2.51749e-09
-2.71482e-09
-2.99008e-09
-3.37797e-09
-3.92672e-09
-4.69082e-09
-5.76397e-09
-7.25652e-09
-9.31887e-09
-1.21261e-08
-1.58019e-08
-2.09255e-08
-1.20838e-09
-7.01634e-10
-6.21947e-10
-6.42769e-10
-6.7474e-10
-7.08483e-10
-7.42954e-10
-7.78144e-10
-8.10812e-10
-8.42607e-10
-8.71996e-10
-8.99636e-10
-9.25906e-10
-9.5115e-10
-9.75382e-10
-9.99024e-10
-1.02214e-09
-1.0456e-09
-1.06779e-09
-1.09025e-09
-1.11328e-09
-1.13494e-09
-1.15732e-09
-1.17928e-09
-1.20148e-09
-1.22358e-09
-1.24544e-09
-1.2677e-09
-1.28981e-09
-1.31174e-09
-1.33413e-09
-1.35621e-09
-1.37825e-09
-1.39977e-09
-1.42235e-09
-1.44441e-09
-1.46666e-09
-1.4886e-09
-1.51088e-09
-1.53228e-09
-1.55494e-09
-1.57661e-09
-1.59854e-09
-1.62057e-09
-1.64205e-09
-1.66381e-09
-1.68582e-09
-1.70737e-09
-1.72926e-09
-1.75006e-09
-1.77227e-09
-1.79398e-09
-1.81549e-09
-1.83674e-09
-1.85839e-09
-1.87998e-09
-1.90166e-09
-1.92406e-09
-1.94697e-09
-1.97029e-09
-1.99575e-09
-2.02353e-09
-2.05464e-09
-2.09129e-09
-2.13819e-09
-2.1974e-09
-2.27507e-09
-2.38009e-09
-2.52458e-09
-2.72584e-09
-3.00701e-09
-3.4027e-09
-3.96039e-09
-4.74116e-09
-5.83448e-09
-7.3527e-09
-9.44455e-09
-1.22919e-08
-1.60309e-08
-2.07779e-08
-4.88829e-10
7.43244e-10
-4.91528e-10
-6.141e-10
-6.41198e-10
-6.72924e-10
-7.07684e-10
-7.43343e-10
-7.78073e-10
-8.11714e-10
-8.43197e-10
-8.73355e-10
-9.01215e-10
-9.27362e-10
-9.52264e-10
-9.76575e-10
-1.00031e-09
-1.02386e-09
-1.04581e-09
-1.06878e-09
-1.09145e-09
-1.11335e-09
-1.13591e-09
-1.15814e-09
-1.18049e-09
-1.20232e-09
-1.22474e-09
-1.2469e-09
-1.26862e-09
-1.29066e-09
-1.31276e-09
-1.33448e-09
-1.35659e-09
-1.3784e-09
-1.40112e-09
-1.42276e-09
-1.44456e-09
-1.46639e-09
-1.48819e-09
-1.5101e-09
-1.53199e-09
-1.55424e-09
-1.57623e-09
-1.59841e-09
-1.62054e-09
-1.64302e-09
-1.66496e-09
-1.68596e-09
-1.70795e-09
-1.72982e-09
-1.75176e-09
-1.77347e-09
-1.79482e-09
-1.81627e-09
-1.83822e-09
-1.85935e-09
-1.88117e-09
-1.90302e-09
-1.92498e-09
-1.94754e-09
-1.97114e-09
-1.99667e-09
-2.02481e-09
-2.05706e-09
-2.09524e-09
-2.1414e-09
-2.20087e-09
-2.27983e-09
-2.38706e-09
-2.53372e-09
-2.73765e-09
-3.02347e-09
-3.42546e-09
-3.99131e-09
-4.78472e-09
-5.89376e-09
-7.4335e-09
-9.55196e-09
-1.24352e-08
-1.64078e-08
-2.27956e-08
-2.65824e-08
-2.37295e-10
-1.29823e-09
-7.16962e-10
-6.17972e-10
-6.39497e-10
-6.70678e-10
-7.05854e-10
-7.41911e-10
-7.76944e-10
-8.10494e-10
-8.42519e-10
-8.72489e-10
-8.99787e-10
-9.26124e-10
-9.51344e-10
-9.75637e-10
-9.99311e-10
-1.02246e-09
-1.04534e-09
-1.06814e-09
-1.09052e-09
-1.11302e-09
-1.13531e-09
-1.15746e-09
-1.17954e-09
-1.2017e-09
-1.2239e-09
-1.24576e-09
-1.26799e-09
-1.29e-09
-1.312e-09
-1.33396e-09
-1.35616e-09
-1.37799e-09
-1.40024e-09
-1.42203e-09
-1.44377e-09
-1.46575e-09
-1.48757e-09
-1.50964e-09
-1.53182e-09
-1.55389e-09
-1.57579e-09
-1.5978e-09
-1.61967e-09
-1.642e-09
-1.66384e-09
-1.68542e-09
-1.7074e-09
-1.7293e-09
-1.75082e-09
-1.77248e-09
-1.7942e-09
-1.81575e-09
-1.83728e-09
-1.85883e-09
-1.88054e-09
-1.90227e-09
-1.92461e-09
-1.94737e-09
-1.97125e-09
-1.99692e-09
-2.02516e-09
-2.05723e-09
-2.09531e-09
-2.14252e-09
-2.20295e-09
-2.2827e-09
-2.39118e-09
-2.53986e-09
-2.74622e-09
-3.0358e-09
-3.44254e-09
-4.01481e-09
-4.81754e-09
-5.93951e-09
-7.49545e-09
-9.63368e-09
-1.2538e-08
-1.63342e-08
-2.10348e-08
-2.68201e-08
-3.36545e-08
-1.9905e-11
3.38051e-10
-4.993e-10
-6.10509e-10
-6.38677e-10
-6.69484e-10
-7.0496e-10
-7.41169e-10
-7.76524e-10
-8.10293e-10
-8.42549e-10
-8.72512e-10
-9.00297e-10
-9.26239e-10
-9.5135e-10
-9.75714e-10
-9.99286e-10
-1.02255e-09
-1.04547e-09
-1.06804e-09
-1.09058e-09
-1.113e-09
-1.13529e-09
-1.15752e-09
-1.17952e-09
-1.20176e-09
-1.22386e-09
-1.24593e-09
-1.26789e-09
-1.29006e-09
-1.31196e-09
-1.33398e-09
-1.35605e-09
-1.378e-09
-1.39989e-09
-1.4216e-09
-1.44349e-09
-1.46553e-09
-1.48749e-09
-1.50955e-09
-1.53181e-09
-1.55397e-09
-1.57582e-09
-1.59774e-09
-1.61961e-09
-1.64165e-09
-1.66363e-09
-1.68533e-09
-1.70743e-09
-1.72918e-09
-1.75088e-09
-1.77262e-09
-1.79427e-09
-1.8158e-09
-1.8374e-09
-1.85891e-09
-1.88067e-09
-1.9025e-09
-1.92472e-09
-1.94775e-09
-1.9716e-09
-1.99743e-09
-2.02573e-09
-2.05813e-09
-2.09664e-09
-2.14403e-09
-2.2048e-09
-2.28535e-09
-2.39463e-09
-2.54441e-09
-2.75273e-09
-3.04439e-09
-3.45437e-09
-4.03098e-09
-4.8399e-09
-5.97021e-09
-7.53666e-09
-9.68777e-09
-1.26124e-08
-1.66313e-08
-2.26776e-08
-2.70682e-08
-3.36345e-08
-2.72517e-10
-7.33032e-10
-6.32656e-10
-6.14271e-10
-6.37841e-10
-6.68679e-10
-7.04276e-10
-7.40785e-10
-7.76219e-10
-8.10018e-10
-8.42403e-10
-8.72335e-10
-8.99987e-10
-9.2609e-10
-9.5115e-10
-9.75519e-10
-9.99101e-10
-1.02246e-09
-1.04538e-09
-1.06787e-09
-1.09046e-09
-1.11285e-09
-1.13512e-09
-1.15739e-09
-1.17943e-09
-1.20163e-09
-1.22365e-09
-1.24581e-09
-1.26782e-09
-1.28986e-09
-1.3118e-09
-1.33388e-09
-1.35588e-09
-1.3777e-09
-1.3996e-09
-1.42137e-09
-1.44334e-09
-1.46527e-09
-1.48719e-09
-1.50918e-09
-1.53101e-09
-1.5528e-09
-1.57483e-09
-1.59701e-09
-1.61909e-09
-1.64128e-09
-1.66335e-09
-1.68522e-09
-1.70729e-09
-1.72912e-09
-1.75079e-09
-1.77248e-09
-1.79416e-09
-1.81579e-09
-1.83734e-09
-1.8589e-09
-1.88064e-09
-1.90241e-09
-1.92479e-09
-1.94781e-09
-1.97188e-09
-1.99768e-09
-2.02614e-09
-2.05864e-09
-2.09725e-09
-2.14499e-09
-2.20597e-09
-2.28706e-09
-2.39665e-09
-2.54709e-09
-2.75617e-09
-3.04921e-09
-3.4606e-09
-4.03918e-09
-4.85105e-09
-5.98528e-09
-7.55674e-09
-9.71375e-09
-1.26438e-08
-1.65526e-08
-2.17321e-08
-2.71105e-08
-3.39396e-08
-5.537e-10
-7.36021e-10
-6.29715e-10
-6.14001e-10
-6.37756e-10
-6.68654e-10
-7.04259e-10
-7.40788e-10
-7.76234e-10
-8.10037e-10
-8.42369e-10
-8.72353e-10
-9.00015e-10
-9.26055e-10
-9.51187e-10
-9.75545e-10
-9.99121e-10
-1.02256e-09
-1.04521e-09
-1.06781e-09
-1.09046e-09
-1.11284e-09
-1.13515e-09
-1.15742e-09
-1.1794e-09
-1.2016e-09
-1.22365e-09
-1.24571e-09
-1.26785e-09
-1.28988e-09
-1.31185e-09
-1.33391e-09
-1.35588e-09
-1.3778e-09
-1.39963e-09
-1.42152e-09
-1.44358e-09
-1.46554e-09
-1.48757e-09
-1.50975e-09
-1.53168e-09
-1.55353e-09
-1.57541e-09
-1.59735e-09
-1.61928e-09
-1.64141e-09
-1.66344e-09
-1.68529e-09
-1.70735e-09
-1.72916e-09
-1.75088e-09
-1.77248e-09
-1.79425e-09
-1.81586e-09
-1.8374e-09
-1.85902e-09
-1.88074e-09
-1.90259e-09
-1.92498e-09
-1.94806e-09
-1.97218e-09
-1.99801e-09
-2.02652e-09
-2.05911e-09
-2.09786e-09
-2.14565e-09
-2.20678e-09
-2.28795e-09
-2.39749e-09
-2.54798e-09
-2.7572e-09
-3.04994e-09
-3.46125e-09
-4.03943e-09
-4.85077e-09
-5.98405e-09
-7.55455e-09
-9.71023e-09
-1.26385e-08
-1.65421e-08
-2.17277e-08
-2.7075e-08
-3.38675e-08
-7.19855e-10
2.78098e-10
-5.01561e-10
-6.12075e-10
-6.38638e-10
-6.69599e-10
-7.04895e-10
-7.41168e-10
-7.76498e-10
-8.10303e-10
-8.42463e-10
-8.72522e-10
-9.00355e-10
-9.26396e-10
-9.5146e-10
-9.75943e-10
-9.99329e-10
-1.02265e-09
-1.04586e-09
-1.06804e-09
-1.09051e-09
-1.11294e-09
-1.1353e-09
-1.15764e-09
-1.17956e-09
-1.20205e-09
-1.22378e-09
-1.24624e-09
-1.26793e-09
-1.28997e-09
-1.31218e-09
-1.33407e-09
-1.3564e-09
-1.37805e-09
-1.39987e-09
-1.42161e-09
-1.44356e-09
-1.46537e-09
-1.48719e-09
-1.50919e-09
-1.53135e-09
-1.55342e-09
-1.57539e-09
-1.59729e-09
-1.61935e-09
-1.64157e-09
-1.66375e-09
-1.68557e-09
-1.70774e-09
-1.72934e-09
-1.75126e-09
-1.77266e-09
-1.79439e-09
-1.81603e-09
-1.8377e-09
-1.85944e-09
-1.88103e-09
-1.90293e-09
-1.92534e-09
-1.94838e-09
-1.97282e-09
-1.99834e-09
-2.02694e-09
-2.05951e-09
-2.09821e-09
-2.14597e-09
-2.20723e-09
-2.28786e-09
-2.39714e-09
-2.54709e-09
-2.75544e-09
-3.04674e-09
-3.45627e-09
-4.03167e-09
-4.83903e-09
-5.96656e-09
-7.53015e-09
-9.67739e-09
-1.25994e-08
-1.66289e-08
-2.27061e-08
-2.70043e-08
-3.37196e-08
-7.52492e-10
-1.26546e-09
-7.18714e-10
-6.17323e-10
-6.39451e-10
-6.70636e-10
-7.05797e-10
-7.4198e-10
-7.76861e-10
-8.10548e-10
-8.42457e-10
-8.72395e-10
-8.99876e-10
-9.25904e-10
-9.51371e-10
-9.75501e-10
-9.99253e-10
-1.02264e-09
-1.04496e-09
-1.06796e-09
-1.09049e-09
-1.11285e-09
-1.13519e-09
-1.15737e-09
-1.17953e-09
-1.20135e-09
-1.22362e-09
-1.24543e-09
-1.26781e-09
-1.28992e-09
-1.31163e-09
-1.33398e-09
-1.35557e-09
-1.37805e-09
-1.40003e-09
-1.42204e-09
-1.44403e-09
-1.46582e-09
-1.48773e-09
-1.50971e-09
-1.53169e-09
-1.55377e-09
-1.57588e-09
-1.59767e-09
-1.61993e-09
-1.64194e-09
-1.66397e-09
-1.68563e-09
-1.70727e-09
-1.72933e-09
-1.75066e-09
-1.77253e-09
-1.79445e-09
-1.8158e-09
-1.8375e-09
-1.85886e-09
-1.88085e-09
-1.90276e-09
-1.92509e-09
-1.94837e-09
-1.97216e-09
-1.99839e-09
-2.02688e-09
-2.05945e-09
-2.09806e-09
-2.14566e-09
-2.20637e-09
-2.28678e-09
-2.39538e-09
-2.54402e-09
-2.75095e-09
-3.03986e-09
-3.44581e-09
-4.016e-09
-4.81615e-09
-5.93371e-09
-7.48471e-09
-9.61636e-09
-1.25127e-08
-1.62938e-08
-2.09689e-08
-2.68265e-08
-3.36313e-08
-5.49114e-10
7.24097e-10
-4.98743e-10
-6.13979e-10
-6.40984e-10
-6.7256e-10
-7.07642e-10
-7.43246e-10
-7.78314e-10
-8.11535e-10
-8.43575e-10
-8.73223e-10
-9.01051e-10
-9.27274e-10
-9.52474e-10
-9.76659e-10
-1.00041e-09
-1.02355e-09
-1.04646e-09
-1.06892e-09
-1.0908e-09
-1.11332e-09
-1.13619e-09
-1.1582e-09
-1.18044e-09
-1.2027e-09
-1.22469e-09
-1.24692e-09
-1.26893e-09
-1.29081e-09
-1.31288e-09
-1.33483e-09
-1.35724e-09
-1.37902e-09
-1.401e-09
-1.4232e-09
-1.44549e-09
-1.46666e-09
-1.48841e-09
-1.5103e-09
-1.53232e-09
-1.55436e-09
-1.57667e-09
-1.59865e-09
-1.62109e-09
-1.64313e-09
-1.66511e-09
-1.68669e-09
-1.70856e-09
-1.73035e-09
-1.75196e-09
-1.77381e-09
-1.79518e-09
-1.81704e-09
-1.83857e-09
-1.86041e-09
-1.88201e-09
-1.9038e-09
-1.92563e-09
-1.94941e-09
-1.97363e-09
-1.99917e-09
-2.02778e-09
-2.06035e-09
-2.09883e-09
-2.14616e-09
-2.20641e-09
-2.28593e-09
-2.39347e-09
-2.53985e-09
-2.74407e-09
-3.02951e-09
-3.43039e-09
-3.99297e-09
-4.78294e-09
-5.8853e-09
-7.41886e-09
-9.52788e-09
-1.24007e-08
-1.6368e-08
-2.2761e-08
-2.66476e-08
-3.35302e-08
-4.66449e-10
-1.21389e-09
-6.96914e-10
-6.21421e-10
-6.4229e-10
-6.74044e-10
-7.08452e-10
-7.43361e-10
-7.77495e-10
-8.10992e-10
-8.42462e-10
-8.72353e-10
-8.99884e-10
-9.25946e-10
-9.50974e-10
-9.75124e-10
-9.98649e-10
-1.02225e-09
-1.0451e-09
-1.06747e-09
-1.09045e-09
-1.11302e-09
-1.13445e-09
-1.15703e-09
-1.17906e-09
-1.2014e-09
-1.2234e-09
-1.24541e-09
-1.26726e-09
-1.28929e-09
-1.31138e-09
-1.33347e-09
-1.35551e-09
-1.37766e-09
-1.3998e-09
-1.4218e-09
-1.44399e-09
-1.46657e-09
-1.48829e-09
-1.51041e-09
-1.53224e-09
-1.55416e-09
-1.57664e-09
-1.5985e-09
-1.61988e-09
-1.64176e-09
-1.66333e-09
-1.68525e-09
-1.70703e-09
-1.72917e-09
-1.75061e-09
-1.77159e-09
-1.79387e-09
-1.81555e-09
-1.83729e-09
-1.85836e-09
-1.88065e-09
-1.90277e-09
-1.92555e-09
-1.94837e-09
-1.97236e-09
-1.99792e-09
-2.02633e-09
-2.05881e-09
-2.09696e-09
-2.14327e-09
-2.20325e-09
-2.28187e-09
-2.38797e-09
-2.53321e-09
-2.73425e-09
-3.01514e-09
-3.40949e-09
-3.96278e-09
-4.73937e-09
-5.82274e-09
-7.33442e-09
-9.41432e-09
-1.22482e-08
-1.59673e-08
-2.07193e-08
-2.62623e-08
-8.07366e-10
-7.19913e-10
-6.25054e-10
-6.4222e-10
-6.78051e-10
-7.11881e-10
-7.46538e-10
-7.80342e-10
-8.1311e-10
-8.44296e-10
-8.73442e-10
-9.0127e-10
-9.2753e-10
-9.53221e-10
-9.77137e-10
-1.00138e-09
-1.02399e-09
-1.04668e-09
-1.06939e-09
-1.09254e-09
-1.11471e-09
-1.13729e-09
-1.15926e-09
-1.18091e-09
-1.20293e-09
-1.22509e-09
-1.24719e-09
-1.26939e-09
-1.29163e-09
-1.31333e-09
-1.33561e-09
-1.35751e-09
-1.37946e-09
-1.40139e-09
-1.42356e-09
-1.44573e-09
-1.46826e-09
-1.49064e-09
-1.51222e-09
-1.53421e-09
-1.55653e-09
-1.57828e-09
-1.60015e-09
-1.62148e-09
-1.64357e-09
-1.66591e-09
-1.68715e-09
-1.70925e-09
-1.73079e-09
-1.75235e-09
-1.77513e-09
-1.79623e-09
-1.8173e-09
-1.83916e-09
-1.86146e-09
-1.88259e-09
-1.9045e-09
-1.92686e-09
-1.95058e-09
-1.97367e-09
-2.00015e-09
-2.02796e-09
-2.05998e-09
-2.09771e-09
-2.14474e-09
-2.20345e-09
-2.28083e-09
-2.38465e-09
-2.52811e-09
-2.72431e-09
-3.00026e-09
-3.38647e-09
-3.92845e-09
-4.68898e-09
-5.75725e-09
-7.23519e-09
-9.28243e-09
-1.20733e-08
-1.57313e-08
-2.08432e-08
1.51093e-12
-8.43747e-10
-6.15585e-10
-6.34537e-10
-6.72319e-10
-7.08353e-10
-7.43846e-10
-7.77645e-10
-8.11297e-10
-8.42603e-10
-8.72442e-10
-9.00092e-10
-9.26167e-10
-9.50997e-10
-9.75589e-10
-9.98468e-10
-1.02259e-09
-1.04553e-09
-1.068e-09
-1.09091e-09
-1.11303e-09
-1.13472e-09
-1.15664e-09
-1.17951e-09
-1.20211e-09
-1.22366e-09
-1.24568e-09
-1.26774e-09
-1.28848e-09
-1.31177e-09
-1.33442e-09
-1.35604e-09
-1.37803e-09
-1.40035e-09
-1.4221e-09
-1.44437e-09
-1.4671e-09
-1.48885e-09
-1.51069e-09
-1.53241e-09
-1.55453e-09
-1.57585e-09
-1.59842e-09
-1.6202e-09
-1.64213e-09
-1.66296e-09
-1.68584e-09
-1.70736e-09
-1.72979e-09
-1.75106e-09
-1.77236e-09
-1.79358e-09
-1.81618e-09
-1.83823e-09
-1.85935e-09
-1.88117e-09
-1.90318e-09
-1.92576e-09
-1.94794e-09
-1.97255e-09
-1.9983e-09
-2.02628e-09
-2.05805e-09
-2.09589e-09
-2.13997e-09
-2.19908e-09
-2.27412e-09
-2.37672e-09
-2.51605e-09
-2.70715e-09
-2.9766e-09
-3.35463e-09
-3.8824e-09
-4.62903e-09
-5.67233e-09
-7.11947e-09
-9.13245e-09
-1.18781e-08
-1.53145e-08
-2.14025e-08
4.01974e-11
-6.28699e-10
-6.16717e-10
-6.4399e-10
-6.74731e-10
-7.10473e-10
-7.45459e-10
-7.78988e-10
-8.11537e-10
-8.42201e-10
-8.71183e-10
-8.99418e-10
-9.25934e-10
-9.51435e-10
-9.75696e-10
-9.98782e-10
-1.02247e-09
-1.04526e-09
-1.06884e-09
-1.08997e-09
-1.1129e-09
-1.13512e-09
-1.15717e-09
-1.17861e-09
-1.20167e-09
-1.22352e-09
-1.24585e-09
-1.26717e-09
-1.28925e-09
-1.31222e-09
-1.33365e-09
-1.35576e-09
-1.37704e-09
-1.39997e-09
-1.42195e-09
-1.4438e-09
-1.46531e-09
-1.4875e-09
-1.5098e-09
-1.53168e-09
-1.55306e-09
-1.57561e-09
-1.59721e-09
-1.61969e-09
-1.64182e-09
-1.66285e-09
-1.68541e-09
-1.7066e-09
-1.7286e-09
-1.75059e-09
-1.77184e-09
-1.79339e-09
-1.81475e-09
-1.83584e-09
-1.85717e-09
-1.87926e-09
-1.89978e-09
-1.92053e-09
-1.94265e-09
-1.96613e-09
-1.98923e-09
-2.01436e-09
-2.04279e-09
-2.07519e-09
-2.11393e-09
-2.16332e-09
-2.22704e-09
-2.31155e-09
-2.4308e-09
-2.59231e-09
-2.81489e-09
-3.13707e-09
-3.58535e-09
-4.21778e-09
-5.10853e-09
-6.36192e-09
-8.12329e-09
-1.0583e-08
-1.39619e-08
-1.94985e-08
-9.36203e-10
-1.02258e-09
-5.8517e-10
-6.15324e-10
-6.48033e-10
-6.80684e-10
-7.13834e-10
-7.47631e-10
-7.80629e-10
-8.12184e-10
-8.4328e-10
-8.72533e-10
-9.00147e-10
-9.2761e-10
-9.52149e-10
-9.76874e-10
-1.00087e-09
-1.02355e-09
-1.04661e-09
-1.06934e-09
-1.09182e-09
-1.11359e-09
-1.13625e-09
-1.15857e-09
-1.18107e-09
-1.20315e-09
-1.2247e-09
-1.24672e-09
-1.26915e-09
-1.29095e-09
-1.31325e-09
-1.33543e-09
-1.3569e-09
-1.37912e-09
-1.401e-09
-1.42335e-09
-1.44478e-09
-1.46738e-09
-1.48951e-09
-1.51079e-09
-1.53305e-09
-1.55578e-09
-1.57687e-09
-1.59872e-09
-1.62147e-09
-1.64267e-09
-1.66475e-09
-1.68666e-09
-1.70832e-09
-1.73045e-09
-1.75123e-09
-1.77276e-09
-1.79477e-09
-1.8162e-09
-1.83754e-09
-1.85887e-09
-1.87974e-09
-1.90149e-09
-1.92333e-09
-1.945e-09
-1.96783e-09
-1.99258e-09
-2.01772e-09
-2.04586e-09
-2.07958e-09
-2.12025e-09
-2.17111e-09
-2.23819e-09
-2.32735e-09
-2.44889e-09
-2.61793e-09
-2.85668e-09
-3.18657e-09
-3.65513e-09
-4.31553e-09
-5.24459e-09
-6.54928e-09
-8.3744e-09
-1.09166e-08
-1.44417e-08
-1.89081e-08
-2.34844e-08
-4.24021e-10
4.05007e-10
-5.43721e-10
-6.10602e-10
-6.44489e-10
-6.77027e-10
-7.10277e-10
-7.43908e-10
-7.77147e-10
-8.10078e-10
-8.41119e-10
-8.71326e-10
-8.99946e-10
-9.25872e-10
-9.51446e-10
-9.75976e-10
-9.99177e-10
-1.02308e-09
-1.0456e-09
-1.06794e-09
-1.09099e-09
-1.11329e-09
-1.13565e-09
-1.15764e-09
-1.17932e-09
-1.20144e-09
-1.22356e-09
-1.2461e-09
-1.26775e-09
-1.28983e-09
-1.31192e-09
-1.33336e-09
-1.35591e-09
-1.37797e-09
-1.39997e-09
-1.42183e-09
-1.44461e-09
-1.46623e-09
-1.4879e-09
-1.51022e-09
-1.53215e-09
-1.55444e-09
-1.57612e-09
-1.59808e-09
-1.61924e-09
-1.642e-09
-1.66355e-09
-1.68577e-09
-1.70729e-09
-1.72917e-09
-1.75084e-09
-1.77188e-09
-1.79386e-09
-1.81523e-09
-1.83716e-09
-1.85782e-09
-1.8788e-09
-1.90052e-09
-1.9224e-09
-1.94493e-09
-1.96773e-09
-1.99145e-09
-2.01788e-09
-2.0472e-09
-2.08183e-09
-2.1228e-09
-2.17616e-09
-2.24453e-09
-2.33843e-09
-2.46568e-09
-2.64197e-09
-2.8879e-09
-3.23556e-09
-3.72397e-09
-4.41428e-09
-5.38255e-09
-6.73854e-09
-8.62841e-09
-1.12488e-08
-1.48901e-08
-2.07886e-08
-2.42767e-08
-2.94246e-08
-4.3296e-10
-6.00082e-10
-5.64235e-10
-6.08943e-10
-6.40948e-10
-6.74108e-10
-7.08236e-10
-7.41735e-10
-7.76964e-10
-8.09672e-10
-8.41282e-10
-8.7178e-10
-8.98827e-10
-9.26259e-10
-9.5203e-10
-9.75941e-10
-1.00032e-09
-1.02259e-09
-1.04635e-09
-1.06853e-09
-1.09088e-09
-1.11315e-09
-1.13482e-09
-1.15839e-09
-1.18067e-09
-1.20188e-09
-1.22377e-09
-1.24526e-09
-1.26875e-09
-1.29077e-09
-1.31237e-09
-1.33368e-09
-1.35611e-09
-1.37895e-09
-1.40139e-09
-1.42283e-09
-1.44315e-09
-1.46665e-09
-1.4885e-09
-1.50971e-09
-1.53157e-09
-1.55475e-09
-1.57607e-09
-1.59816e-09
-1.62101e-09
-1.64113e-09
-1.66352e-09
-1.68653e-09
-1.70794e-09
-1.72958e-09
-1.75003e-09
-1.77255e-09
-1.79433e-09
-1.81649e-09
-1.83612e-09
-1.85852e-09
-1.88002e-09
-1.9009e-09
-1.92364e-09
-1.94461e-09
-1.96873e-09
-1.99303e-09
-2.01904e-09
-2.04944e-09
-2.08366e-09
-2.12808e-09
-2.1818e-09
-2.25284e-09
-2.34942e-09
-2.47992e-09
-2.66268e-09
-2.92061e-09
-3.28069e-09
-3.78836e-09
-4.50602e-09
-5.51005e-09
-6.91386e-09
-8.86229e-09
-1.15521e-08
-1.52457e-08
-2.01893e-08
-2.47462e-08
-3.00745e-08
-4.84186e-10
-4.12452e-10
-5.17785e-10
-6.05753e-10
-6.39052e-10
-6.73714e-10
-7.09856e-10
-7.45999e-10
-7.79317e-10
-8.12464e-10
-8.43799e-10
-8.72714e-10
-9.01774e-10
-9.2699e-10
-9.52495e-10
-9.77625e-10
-1.0006e-09
-1.02484e-09
-1.0467e-09
-1.06896e-09
-1.09158e-09
-1.1143e-09
-1.13769e-09
-1.15865e-09
-1.18069e-09
-1.20237e-09
-1.22572e-09
-1.24808e-09
-1.2685e-09
-1.29103e-09
-1.31302e-09
-1.33605e-09
-1.35783e-09
-1.37938e-09
-1.40057e-09
-1.42347e-09
-1.44713e-09
-1.46703e-09
-1.48941e-09
-1.51187e-09
-1.53443e-09
-1.55551e-09
-1.57798e-09
-1.59867e-09
-1.62121e-09
-1.64443e-09
-1.66574e-09
-1.68621e-09
-1.70809e-09
-1.7302e-09
-1.75317e-09
-1.77416e-09
-1.79485e-09
-1.81601e-09
-1.83914e-09
-1.85894e-09
-1.88063e-09
-1.9032e-09
-1.92437e-09
-1.94782e-09
-1.96966e-09
-1.99456e-09
-2.02209e-09
-2.05183e-09
-2.08902e-09
-2.13186e-09
-2.1876e-09
-2.26191e-09
-2.36049e-09
-2.49774e-09
-2.68748e-09
-2.95386e-09
-3.32723e-09
-3.85243e-09
-4.59413e-09
-5.63127e-09
-7.07912e-09
-9.08018e-09
-1.18322e-08
-1.56406e-08
-2.07681e-08
-2.50927e-08
-3.23196e-08
-5.42472e-10
-9.52826e-10
-5.93377e-10
-6.1609e-10
-6.44059e-10
-6.79574e-10
-7.1557e-10
-7.50587e-10
-7.84027e-10
-8.15972e-10
-8.46991e-10
-8.76876e-10
-9.0343e-10
-9.29533e-10
-9.54586e-10
-9.78632e-10
-1.00233e-09
-1.02541e-09
-1.04846e-09
-1.07198e-09
-1.09326e-09
-1.1165e-09
-1.13836e-09
-1.16045e-09
-1.1826e-09
-1.20488e-09
-1.22627e-09
-1.24873e-09
-1.27131e-09
-1.29269e-09
-1.31436e-09
-1.3364e-09
-1.35965e-09
-1.38098e-09
-1.40393e-09
-1.42474e-09
-1.44781e-09
-1.47055e-09
-1.49157e-09
-1.51487e-09
-1.53637e-09
-1.55875e-09
-1.5807e-09
-1.60227e-09
-1.62347e-09
-1.64523e-09
-1.66632e-09
-1.68927e-09
-1.71079e-09
-1.73194e-09
-1.75391e-09
-1.77496e-09
-1.79608e-09
-1.81941e-09
-1.83955e-09
-1.86179e-09
-1.88234e-09
-1.90399e-09
-1.92645e-09
-1.94849e-09
-1.97301e-09
-1.9975e-09
-2.02525e-09
-2.055e-09
-2.09205e-09
-2.1363e-09
-2.19501e-09
-2.26966e-09
-2.37312e-09
-2.51434e-09
-2.7097e-09
-2.98411e-09
-3.36927e-09
-3.91129e-09
-4.67211e-09
-5.73704e-09
-7.22006e-09
-9.26806e-09
-1.2068e-08
-1.58627e-08
-2.0609e-08
-2.57528e-08
-3.27789e-08
-5.63735e-10
-1.02484e-09
-6.29148e-10
-6.18706e-10
-6.45802e-10
-6.80122e-10
-7.15835e-10
-7.50307e-10
-7.83606e-10
-8.14964e-10
-8.46133e-10
-8.75604e-10
-9.02836e-10
-9.28425e-10
-9.53411e-10
-9.77665e-10
-1.00091e-09
-1.02435e-09
-1.04713e-09
-1.07029e-09
-1.09208e-09
-1.11519e-09
-1.13625e-09
-1.15876e-09
-1.18107e-09
-1.20269e-09
-1.22563e-09
-1.24723e-09
-1.26899e-09
-1.29135e-09
-1.31354e-09
-1.33612e-09
-1.35773e-09
-1.38036e-09
-1.40154e-09
-1.42444e-09
-1.44639e-09
-1.46897e-09
-1.49056e-09
-1.51323e-09
-1.53509e-09
-1.55728e-09
-1.57922e-09
-1.60086e-09
-1.62225e-09
-1.64401e-09
-1.66556e-09
-1.68773e-09
-1.70896e-09
-1.73022e-09
-1.75243e-09
-1.7742e-09
-1.79535e-09
-1.81715e-09
-1.83874e-09
-1.85968e-09
-1.88157e-09
-1.90338e-09
-1.92493e-09
-1.94866e-09
-1.97156e-09
-1.99707e-09
-2.0251e-09
-2.05568e-09
-2.09289e-09
-2.13886e-09
-2.19729e-09
-2.27532e-09
-2.37975e-09
-2.52374e-09
-2.72409e-09
-3.00421e-09
-3.39799e-09
-3.95218e-09
-4.72879e-09
-5.81543e-09
-7.32608e-09
-9.40913e-09
-1.22454e-08
-1.60459e-08
-2.0797e-08
-2.62281e-08
-3.31681e-08
-5.61321e-10
-7.24809e-10
-5.49911e-10
-6.14624e-10
-6.45582e-10
-6.80443e-10
-7.15788e-10
-7.50333e-10
-7.83579e-10
-8.15348e-10
-8.46543e-10
-8.76157e-10
-9.04334e-10
-9.30123e-10
-9.54954e-10
-9.79231e-10
-1.00261e-09
-1.02593e-09
-1.04858e-09
-1.07056e-09
-1.0934e-09
-1.11545e-09
-1.13787e-09
-1.16033e-09
-1.18257e-09
-1.20451e-09
-1.22675e-09
-1.24885e-09
-1.27094e-09
-1.29275e-09
-1.31479e-09
-1.33653e-09
-1.35883e-09
-1.38064e-09
-1.40329e-09
-1.42467e-09
-1.44669e-09
-1.4686e-09
-1.49055e-09
-1.51269e-09
-1.53464e-09
-1.55684e-09
-1.57889e-09
-1.60062e-09
-1.62238e-09
-1.64446e-09
-1.66697e-09
-1.68798e-09
-1.71043e-09
-1.73184e-09
-1.75286e-09
-1.77541e-09
-1.79658e-09
-1.81878e-09
-1.84009e-09
-1.86154e-09
-1.88293e-09
-1.90483e-09
-1.92671e-09
-1.94935e-09
-1.9733e-09
-1.99889e-09
-2.02623e-09
-2.05818e-09
-2.09628e-09
-2.14209e-09
-2.20189e-09
-2.28098e-09
-2.38726e-09
-2.53346e-09
-2.73722e-09
-3.02209e-09
-3.42237e-09
-3.98535e-09
-4.77482e-09
-5.87801e-09
-7.41042e-09
-9.52106e-09
-1.23942e-08
-1.62959e-08
-2.12996e-08
-2.78613e-08
-3.36072e-08
-5.66838e-10
-1.03085e-09
-6.6811e-10
-6.17318e-10
-6.44938e-10
-6.79841e-10
-7.15054e-10
-7.49618e-10
-7.82825e-10
-8.14719e-10
-8.4607e-10
-8.75832e-10
-9.03653e-10
-9.29599e-10
-9.54449e-10
-9.78068e-10
-1.00169e-09
-1.02503e-09
-1.04772e-09
-1.07057e-09
-1.09259e-09
-1.11535e-09
-1.13731e-09
-1.15951e-09
-1.1819e-09
-1.20342e-09
-1.22608e-09
-1.24748e-09
-1.27014e-09
-1.2918e-09
-1.31417e-09
-1.3362e-09
-1.35832e-09
-1.38038e-09
-1.40225e-09
-1.42394e-09
-1.44599e-09
-1.46787e-09
-1.48998e-09
-1.51202e-09
-1.53397e-09
-1.55613e-09
-1.57818e-09
-1.59987e-09
-1.62161e-09
-1.64385e-09
-1.66602e-09
-1.68772e-09
-1.70963e-09
-1.73137e-09
-1.75286e-09
-1.77473e-09
-1.79587e-09
-1.81808e-09
-1.83922e-09
-1.86098e-09
-1.88242e-09
-1.90411e-09
-1.92637e-09
-1.9494e-09
-1.97328e-09
-1.99887e-09
-2.02683e-09
-2.05863e-09
-2.09617e-09
-2.14356e-09
-2.20421e-09
-2.28396e-09
-2.39165e-09
-2.54035e-09
-2.74668e-09
-3.03539e-09
-3.44071e-09
-4.01054e-09
-4.80941e-09
-5.92528e-09
-7.47396e-09
-9.60398e-09
-1.24986e-08
-1.63247e-08
-2.1096e-08
-2.79939e-08
-3.40155e-08
-5.05689e-10
-4.3644e-10
-5.45515e-10
-6.12394e-10
-6.45215e-10
-6.79574e-10
-7.14661e-10
-7.49135e-10
-7.82457e-10
-8.14534e-10
-8.45973e-10
-8.75943e-10
-9.03874e-10
-9.29935e-10
-9.54582e-10
-9.78827e-10
-1.00248e-09
-1.02511e-09
-1.04829e-09
-1.07069e-09
-1.09268e-09
-1.11541e-09
-1.13745e-09
-1.15996e-09
-1.18192e-09
-1.20401e-09
-1.22615e-09
-1.24818e-09
-1.27017e-09
-1.29235e-09
-1.3143e-09
-1.33621e-09
-1.35833e-09
-1.38032e-09
-1.40191e-09
-1.42375e-09
-1.4457e-09
-1.46752e-09
-1.48973e-09
-1.5118e-09
-1.53377e-09
-1.55586e-09
-1.5779e-09
-1.59944e-09
-1.62129e-09
-1.64354e-09
-1.66589e-09
-1.68775e-09
-1.70968e-09
-1.73136e-09
-1.75302e-09
-1.77493e-09
-1.79667e-09
-1.8181e-09
-1.83955e-09
-1.86107e-09
-1.88279e-09
-1.90492e-09
-1.92679e-09
-1.95002e-09
-1.97378e-09
-1.99954e-09
-2.02756e-09
-2.05992e-09
-2.09884e-09
-2.14551e-09
-2.20672e-09
-2.28688e-09
-2.39559e-09
-2.54565e-09
-2.75359e-09
-3.04472e-09
-3.45333e-09
-4.0277e-09
-4.83273e-09
-5.95671e-09
-7.51584e-09
-9.65877e-09
-1.25723e-08
-1.65252e-08
-2.17854e-08
-2.824e-08
-3.42972e-08
-5.45743e-10
-7.45261e-10
-6.18723e-10
-6.14588e-10
-6.44937e-10
-6.79338e-10
-7.14444e-10
-7.48957e-10
-7.82279e-10
-8.14364e-10
-8.45843e-10
-8.75843e-10
-9.03865e-10
-9.2987e-10
-9.54463e-10
-9.78554e-10
-1.00228e-09
-1.02509e-09
-1.0479e-09
-1.07067e-09
-1.09264e-09
-1.11534e-09
-1.13731e-09
-1.15982e-09
-1.18182e-09
-1.20393e-09
-1.2259e-09
-1.24791e-09
-1.27012e-09
-1.29218e-09
-1.31414e-09
-1.33611e-09
-1.35809e-09
-1.38003e-09
-1.40167e-09
-1.42358e-09
-1.4456e-09
-1.46742e-09
-1.48966e-09
-1.51175e-09
-1.53371e-09
-1.55572e-09
-1.57772e-09
-1.59925e-09
-1.6211e-09
-1.64334e-09
-1.66558e-09
-1.68749e-09
-1.70953e-09
-1.7314e-09
-1.75298e-09
-1.77477e-09
-1.79645e-09
-1.81811e-09
-1.83961e-09
-1.86104e-09
-1.88291e-09
-1.90477e-09
-1.92709e-09
-1.95002e-09
-1.97414e-09
-1.99983e-09
-2.02795e-09
-2.06069e-09
-2.09911e-09
-2.1467e-09
-2.20807e-09
-2.28877e-09
-2.39795e-09
-2.54851e-09
-2.75742e-09
-3.04997e-09
-3.46003e-09
-4.03646e-09
-4.84442e-09
-5.97213e-09
-7.53587e-09
-9.68472e-09
-1.2604e-08
-1.64977e-08
-2.15289e-08
-2.82565e-08
-3.44606e-08
-5.52002e-10
-7.59286e-10
-6.19997e-10
-6.14626e-10
-6.44877e-10
-6.79331e-10
-7.14451e-10
-7.48955e-10
-7.82297e-10
-8.14367e-10
-8.45811e-10
-8.75852e-10
-9.03824e-10
-9.29917e-10
-9.54471e-10
-9.78512e-10
-1.00217e-09
-1.0251e-09
-1.04787e-09
-1.07067e-09
-1.09264e-09
-1.11533e-09
-1.13731e-09
-1.15977e-09
-1.18179e-09
-1.20394e-09
-1.22579e-09
-1.24799e-09
-1.27004e-09
-1.29223e-09
-1.31418e-09
-1.33613e-09
-1.35801e-09
-1.38006e-09
-1.40162e-09
-1.42351e-09
-1.44563e-09
-1.46735e-09
-1.48965e-09
-1.51173e-09
-1.53373e-09
-1.55566e-09
-1.57769e-09
-1.59927e-09
-1.62115e-09
-1.64337e-09
-1.66555e-09
-1.68751e-09
-1.70957e-09
-1.73142e-09
-1.75312e-09
-1.77478e-09
-1.79653e-09
-1.8181e-09
-1.83966e-09
-1.86108e-09
-1.883e-09
-1.90489e-09
-1.92726e-09
-1.95032e-09
-1.97436e-09
-2.00023e-09
-2.02836e-09
-2.06112e-09
-2.09975e-09
-2.14749e-09
-2.20868e-09
-2.28972e-09
-2.39898e-09
-2.54967e-09
-2.75854e-09
-3.05049e-09
-3.46084e-09
-4.03688e-09
-4.84428e-09
-5.97106e-09
-7.53374e-09
-9.68127e-09
-1.25991e-08
-1.64918e-08
-2.15369e-08
-2.82533e-08
-3.44879e-08
-5.03025e-10
-4.72909e-10
-5.47073e-10
-6.1283e-10
-6.45003e-10
-6.7964e-10
-7.14626e-10
-7.4914e-10
-7.82443e-10
-8.14522e-10
-8.45964e-10
-8.75923e-10
-9.03845e-10
-9.29964e-10
-9.54562e-10
-9.78605e-10
-1.00198e-09
-1.02508e-09
-1.04803e-09
-1.07061e-09
-1.09272e-09
-1.11532e-09
-1.13749e-09
-1.15968e-09
-1.18177e-09
-1.20398e-09
-1.22599e-09
-1.24806e-09
-1.27012e-09
-1.29229e-09
-1.31446e-09
-1.33613e-09
-1.35823e-09
-1.38021e-09
-1.40179e-09
-1.42364e-09
-1.44579e-09
-1.46737e-09
-1.48958e-09
-1.51162e-09
-1.53368e-09
-1.55569e-09
-1.57766e-09
-1.5994e-09
-1.62132e-09
-1.64364e-09
-1.66577e-09
-1.68773e-09
-1.70986e-09
-1.7315e-09
-1.75339e-09
-1.77486e-09
-1.79679e-09
-1.81828e-09
-1.84007e-09
-1.86132e-09
-1.88309e-09
-1.90508e-09
-1.92762e-09
-1.95076e-09
-1.97472e-09
-2.0006e-09
-2.02887e-09
-2.06142e-09
-2.10002e-09
-2.14785e-09
-2.20911e-09
-2.28965e-09
-2.39866e-09
-2.54869e-09
-2.75675e-09
-3.04746e-09
-3.45573e-09
-4.02889e-09
-4.83226e-09
-5.95357e-09
-7.50942e-09
-9.64847e-09
-1.25585e-08
-1.65149e-08
-2.17889e-08
-2.82017e-08
-3.43621e-08
-5.88377e-10
-1.03476e-09
-6.64211e-10
-6.16958e-10
-6.45104e-10
-6.79821e-10
-7.1497e-10
-7.49601e-10
-7.82825e-10
-8.14748e-10
-8.45992e-10
-8.75813e-10
-9.03615e-10
-9.29746e-10
-9.54226e-10
-9.78471e-10
-1.00182e-09
-1.02494e-09
-1.04758e-09
-1.07048e-09
-1.09269e-09
-1.11518e-09
-1.13748e-09
-1.15953e-09
-1.18178e-09
-1.20371e-09
-1.22592e-09
-1.24777e-09
-1.26999e-09
-1.29185e-09
-1.31393e-09
-1.33602e-09
-1.35804e-09
-1.38015e-09
-1.4021e-09
-1.42386e-09
-1.44624e-09
-1.46764e-09
-1.48977e-09