/*--------------------------------*- C++ -*----------------------------------*\
| =========                 |                                                 |
| \\      /  F ield         | OpenFOAM: The Open Source CFD Toolbox           |
|  \\    /   O peration     | Version:  v1906                                 |
|   \\  /    A nd           | Web:      www.OpenFOAM.com                      |
|    \\/     M anipulation  |                                                 |
\*---------------------------------------------------------------------------*/
FoamFile
{
    version     2.0;
    format      ascii;
    class       volScalarField;
    location    "36.5";
    object      p;
}
// * * * * * * * * * * * * * * * * * * * * * * * * * * * * * * * * * * * * * //

dimensions      [0 2 -2 0 0 0 0];


internalField   nonuniform List<scalar> 
243374
(
-4.55367e-14
-3.97002e-11
-5.93751e-11
-8.23622e-11
-1.05027e-10
-1.27372e-10
-1.49579e-10
-1.71668e-10
-1.93718e-10
-2.15724e-10
-2.37707e-10
-2.59698e-10
-2.81683e-10
-3.03653e-10
-3.25633e-10
-3.47599e-10
-3.6959e-10
-3.91574e-10
-4.13551e-10
-4.35543e-10
-4.57542e-10
-4.79508e-10
-5.01487e-10
-5.23488e-10
-5.45466e-10
-5.67452e-10
-5.8944e-10
-6.11422e-10
-6.33407e-10
-6.55398e-10
-6.77385e-10
-6.99367e-10
-7.21352e-10
-7.43341e-10
-7.65334e-10
-7.87316e-10
-8.0929e-10
-8.31284e-10
-8.53278e-10
-8.75253e-10
-8.97236e-10
-9.19236e-10
-9.4121e-10
-9.63199e-10
-9.85182e-10
-1.00717e-09
-1.02916e-09
-1.05115e-09
-1.07314e-09
-1.09513e-09
-1.11712e-09
-1.13911e-09
-1.16111e-09
-1.1831e-09
-1.20511e-09
-1.22712e-09
-1.24914e-09
-1.27117e-09
-1.29322e-09
-1.31531e-09
-1.33744e-09
-1.35962e-09
-1.38188e-09
-1.40425e-09
-1.42678e-09
-1.44953e-09
-1.4726e-09
-1.49613e-09
-1.52028e-09
-1.54532e-09
-1.57165e-09
-1.5997e-09
-1.63019e-09
-1.66403e-09
-1.70258e-09
-1.74752e-09
-1.80105e-09
-1.86564e-09
-1.93876e-09
-2.05808e-09
-1.34106e-11
-4.04131e-11
-5.97464e-11
-8.2534e-11
-1.0512e-10
-1.27438e-10
-1.49625e-10
-1.71708e-10
-1.9373e-10
-2.15741e-10
-2.37733e-10
-2.5971e-10
-2.81681e-10
-3.03658e-10
-3.25636e-10
-3.47624e-10
-3.69603e-10
-3.91578e-10
-4.13576e-10
-4.35546e-10
-4.5753e-10
-4.79538e-10
-5.01512e-10
-5.23481e-10
-5.4548e-10
-5.67465e-10
-5.89448e-10
-6.11434e-10
-6.33418e-10
-6.554e-10
-6.77392e-10
-6.9938e-10
-7.21363e-10
-7.43348e-10
-7.65339e-10
-7.8732e-10
-8.09311e-10
-8.31291e-10
-8.53279e-10
-8.75267e-10
-8.97251e-10
-9.19237e-10
-9.41222e-10
-9.63212e-10
-9.85186e-10
-1.00718e-09
-1.02917e-09
-1.05115e-09
-1.07315e-09
-1.09514e-09
-1.11712e-09
-1.13911e-09
-1.16111e-09
-1.18311e-09
-1.20511e-09
-1.22713e-09
-1.24914e-09
-1.27118e-09
-1.29323e-09
-1.31532e-09
-1.33743e-09
-1.35961e-09
-1.38188e-09
-1.40426e-09
-1.42678e-09
-1.44955e-09
-1.47265e-09
-1.49618e-09
-1.52038e-09
-1.54548e-09
-1.57185e-09
-1.60002e-09
-1.63068e-09
-1.66478e-09
-1.7036e-09
-1.74887e-09
-1.80279e-09
-1.86792e-09
-1.9428e-09
-2.04806e-09
-3.01318e-11
-4.05821e-11
-5.99831e-11
-8.26268e-11
-1.05161e-10
-1.27451e-10
-1.49613e-10
-1.71702e-10
-1.93742e-10
-2.15739e-10
-2.37715e-10
-2.59703e-10
-2.81681e-10
-3.03655e-10
-3.2563e-10
-3.47605e-10
-3.69584e-10
-3.91577e-10
-4.13549e-10
-4.35542e-10
-4.57538e-10
-4.79489e-10
-5.01487e-10
-5.23501e-10
-5.45468e-10
-5.67451e-10
-5.89443e-10
-6.11418e-10
-6.33407e-10
-6.5539e-10
-6.77374e-10
-6.99364e-10
-7.21359e-10
-7.43347e-10
-7.65323e-10
-7.87311e-10
-8.09291e-10
-8.31284e-10
-8.53279e-10
-8.7525e-10
-8.97246e-10
-9.19234e-10
-9.41212e-10
-9.6319e-10
-9.85191e-10
-1.00717e-09
-1.02915e-09
-1.05116e-09
-1.07313e-09
-1.09511e-09
-1.11712e-09
-1.13911e-09
-1.16111e-09
-1.18309e-09
-1.2051e-09
-1.2271e-09
-1.24913e-09
-1.27115e-09
-1.2932e-09
-1.3153e-09
-1.33743e-09
-1.3596e-09
-1.38187e-09
-1.40422e-09
-1.42677e-09
-1.44955e-09
-1.47262e-09
-1.4962e-09
-1.5204e-09
-1.54553e-09
-1.57197e-09
-1.60022e-09
-1.63094e-09
-1.66522e-09
-1.70426e-09
-1.7498e-09
-1.80405e-09
-1.86943e-09
-1.94524e-09
-2.03379e-09
1.27348e-10
-2.21153e-11
-3.80901e-11
-6.0008e-11
-8.26791e-11
-1.05197e-10
-1.27467e-10
-1.49674e-10
-1.71717e-10
-1.93734e-10
-2.15744e-10
-2.37749e-10
-2.59706e-10
-2.81692e-10
-3.03652e-10
-3.25635e-10
-3.47609e-10
-3.69607e-10
-3.91568e-10
-4.1358e-10
-4.35561e-10
-4.57527e-10
-4.7954e-10
-5.01504e-10
-5.23464e-10
-5.45472e-10
-5.67457e-10
-5.89446e-10
-6.11438e-10
-6.33412e-10
-6.55409e-10
-6.77399e-10
-6.99372e-10
-7.21346e-10
-7.43336e-10
-7.65348e-10
-7.87309e-10
-8.09309e-10
-8.31284e-10
-8.53263e-10
-8.75252e-10
-8.97245e-10
-9.19229e-10
-9.41212e-10
-9.63223e-10
-9.85174e-10
-1.00718e-09
-1.02917e-09
-1.05113e-09
-1.07315e-09
-1.09515e-09
-1.11711e-09
-1.1391e-09
-1.16108e-09
-1.1831e-09
-1.2051e-09
-1.22714e-09
-1.24913e-09
-1.27118e-09
-1.29323e-09
-1.31528e-09
-1.33741e-09
-1.35959e-09
-1.38184e-09
-1.40425e-09
-1.42677e-09
-1.44953e-09
-1.47266e-09
-1.4962e-09
-1.52044e-09
-1.5456e-09
-1.57207e-09
-1.60037e-09
-1.63124e-09
-1.66558e-09
-1.70479e-09
-1.75055e-09
-1.80506e-09
-1.87088e-09
-1.95009e-09
-2.04142e-09
-2.14637e-09
1.16131e-10
-2.85265e-11
-3.89323e-11
-6.00531e-11
-8.27176e-11
-1.0522e-10
-1.27485e-10
-1.49625e-10
-1.71731e-10
-1.93752e-10
-2.15747e-10
-2.37733e-10
-2.59697e-10
-2.81673e-10
-3.03673e-10
-3.25631e-10
-3.47629e-10
-3.69576e-10
-3.91586e-10
-4.13544e-10
-4.35525e-10
-4.57517e-10
-4.79483e-10
-5.01498e-10
-5.23513e-10
-5.45472e-10
-5.67462e-10
-5.89439e-10
-6.11414e-10
-6.33411e-10
-6.55386e-10
-6.77376e-10
-6.99359e-10
-7.21355e-10
-7.43357e-10
-7.65318e-10
-7.87318e-10
-8.09295e-10
-8.31274e-10
-8.53264e-10
-8.75254e-10
-8.97238e-10
-9.19222e-10
-9.41207e-10
-9.63192e-10
-9.85193e-10
-1.00717e-09
-1.02914e-09
-1.05117e-09
-1.07312e-09
-1.0951e-09
-1.11711e-09
-1.13912e-09
-1.16112e-09
-1.1831e-09
-1.20508e-09
-1.22708e-09
-1.24912e-09
-1.27113e-09
-1.29319e-09
-1.31531e-09
-1.3374e-09
-1.35959e-09
-1.38185e-09
-1.4042e-09
-1.42673e-09
-1.44953e-09
-1.4726e-09
-1.4962e-09
-1.52043e-09
-1.5456e-09
-1.5721e-09
-1.60045e-09
-1.63132e-09
-1.6658e-09
-1.70514e-09
-1.75103e-09
-1.80572e-09
-1.87179e-09
-1.95061e-09
-2.03785e-09
-2.16227e-09
-2.36375e-09
1.10783e-10
-2.12229e-11
-3.74636e-11
-5.99754e-11
-8.27412e-11
-1.05209e-10
-1.27495e-10
-1.49691e-10
-1.71722e-10
-1.93747e-10
-2.15745e-10
-2.37734e-10
-2.59719e-10
-2.8169e-10
-3.03642e-10
-3.2565e-10
-3.47588e-10
-3.6961e-10
-3.9156e-10
-4.13566e-10
-4.35566e-10
-4.57542e-10
-4.79542e-10
-5.015e-10
-5.23454e-10
-5.45473e-10
-5.67446e-10
-5.8944e-10
-6.11432e-10
-6.33405e-10
-6.55399e-10
-6.77392e-10
-6.99391e-10
-7.21356e-10
-7.43326e-10
-7.65328e-10
-7.87301e-10
-8.09291e-10
-8.31278e-10
-8.53265e-10
-8.75243e-10
-8.97241e-10
-9.19222e-10
-9.41212e-10
-9.63196e-10
-9.85181e-10
-1.00717e-09
-1.02917e-09
-1.05111e-09
-1.07314e-09
-1.09514e-09
-1.11712e-09
-1.13908e-09
-1.16107e-09
-1.18308e-09
-1.2051e-09
-1.22712e-09
-1.24912e-09
-1.27116e-09
-1.29321e-09
-1.31525e-09
-1.3374e-09
-1.35956e-09
-1.38181e-09
-1.40419e-09
-1.42673e-09
-1.44949e-09
-1.4726e-09
-1.49616e-09
-1.5204e-09
-1.54557e-09
-1.57207e-09
-1.60043e-09
-1.63138e-09
-1.66586e-09
-1.70523e-09
-1.75122e-09
-1.80601e-09
-1.8723e-09
-1.95278e-09
-2.04557e-09
-2.17008e-09
-2.36244e-09
1.06101e-10
-2.5079e-11
-3.80512e-11
-6.00297e-11
-8.27393e-11
-1.05251e-10
-1.27494e-10
-1.49653e-10
-1.71736e-10
-1.93738e-10
-2.15768e-10
-2.37734e-10
-2.5968e-10
-2.81695e-10
-3.03676e-10
-3.25622e-10
-3.47624e-10
-3.69586e-10
-3.91599e-10
-4.13565e-10
-4.35525e-10
-4.57509e-10
-4.79489e-10
-5.01498e-10
-5.235e-10
-5.45477e-10
-5.67463e-10
-5.89438e-10
-6.11428e-10
-6.33417e-10
-6.55395e-10
-6.77376e-10
-6.99345e-10
-7.21346e-10
-7.43358e-10
-7.65334e-10
-7.87304e-10
-8.0929e-10
-8.31271e-10
-8.5325e-10
-8.75244e-10
-8.97214e-10
-9.19219e-10
-9.41187e-10
-9.63194e-10
-9.85176e-10
-1.00717e-09
-1.02914e-09
-1.05117e-09
-1.07314e-09
-1.09511e-09
-1.11709e-09
-1.13911e-09
-1.16111e-09
-1.1831e-09
-1.20507e-09
-1.22708e-09
-1.24912e-09
-1.27112e-09
-1.29317e-09
-1.31528e-09
-1.33737e-09
-1.35955e-09
-1.3818e-09
-1.40416e-09
-1.42668e-09
-1.44946e-09
-1.47254e-09
-1.49611e-09
-1.52034e-09
-1.54551e-09
-1.57199e-09
-1.60034e-09
-1.63126e-09
-1.66576e-09
-1.70514e-09
-1.75113e-09
-1.80593e-09
-1.87225e-09
-1.95232e-09
-2.04245e-09
-2.17208e-09
-2.36146e-09
1.04284e-10
-2.50482e-11
-3.8039e-11
-6.00138e-11
-8.27398e-11
-1.05212e-10
-1.27509e-10
-1.49661e-10
-1.71733e-10
-1.93767e-10
-2.1573e-10
-2.37735e-10
-2.59724e-10
-2.81665e-10
-3.03651e-10
-3.25645e-10
-3.47588e-10
-3.6959e-10
-3.91558e-10
-4.13544e-10
-4.35561e-10
-4.57544e-10
-4.7953e-10
-5.01495e-10
-5.23471e-10
-5.45453e-10
-5.67445e-10
-5.89444e-10
-6.11417e-10
-6.33397e-10
-6.55395e-10
-6.77386e-10
-6.99385e-10
-7.21365e-10
-7.43308e-10
-7.65328e-10
-7.87302e-10
-8.09292e-10
-8.31282e-10
-8.53269e-10
-8.75246e-10
-8.9724e-10
-9.19217e-10
-9.41209e-10
-9.63195e-10
-9.85173e-10
-1.00718e-09
-1.02917e-09
-1.05111e-09
-1.07312e-09
-1.09513e-09
-1.11711e-09
-1.13908e-09
-1.16107e-09
-1.18308e-09
-1.20509e-09
-1.22709e-09
-1.24909e-09
-1.27114e-09
-1.29318e-09
-1.31522e-09
-1.33736e-09
-1.35952e-09
-1.38178e-09
-1.40414e-09
-1.42666e-09
-1.44941e-09
-1.47249e-09
-1.49602e-09
-1.52025e-09
-1.54538e-09
-1.57186e-09
-1.60016e-09
-1.63106e-09
-1.66549e-09
-1.70482e-09
-1.75074e-09
-1.80548e-09
-1.87172e-09
-1.95163e-09
-2.04168e-09
-2.17179e-09
-2.3607e-09
1.05177e-10
-2.15063e-11
-3.75221e-11
-5.9998e-11
-8.27371e-11
-1.05243e-10
-1.2748e-10
-1.49669e-10
-1.71726e-10
-1.93722e-10
-2.15767e-10
-2.37733e-10
-2.59686e-10
-2.81707e-10
-3.03656e-10
-3.25637e-10
-3.47606e-10
-3.69602e-10
-3.91602e-10
-4.13575e-10
-4.35529e-10
-4.57516e-10
-4.79501e-10
-5.01498e-10
-5.23476e-10
-5.45476e-10
-5.67465e-10
-5.89432e-10
-6.1144e-10
-6.33424e-10
-6.55397e-10
-6.77378e-10
-6.99357e-10
-7.21335e-10
-7.43373e-10
-7.65322e-10
-7.87305e-10
-8.09292e-10
-8.31278e-10
-8.53245e-10
-8.7525e-10
-8.97235e-10
-9.19218e-10
-9.41203e-10
-9.63194e-10
-9.85186e-10
-1.00716e-09
-1.02915e-09
-1.05116e-09
-1.07315e-09
-1.09511e-09
-1.1171e-09
-1.1391e-09
-1.1611e-09
-1.18308e-09
-1.20507e-09
-1.22708e-09
-1.24911e-09
-1.27112e-09
-1.29316e-09
-1.31526e-09
-1.33734e-09
-1.35951e-09
-1.38174e-09
-1.40409e-09
-1.42661e-09
-1.44935e-09
-1.47242e-09
-1.49596e-09
-1.52013e-09
-1.54523e-09
-1.57165e-09
-1.59991e-09
-1.63072e-09
-1.66507e-09
-1.70429e-09
-1.75006e-09
-1.80463e-09
-1.87067e-09
-1.95094e-09
-2.04385e-09
-2.16975e-09
-2.35986e-09
1.08723e-10
-2.83747e-11
-3.89336e-11
-6.00656e-11
-8.27201e-11
-1.05189e-10
-1.27506e-10
-1.49619e-10
-1.71728e-10
-1.93756e-10
-2.15723e-10
-2.37737e-10
-2.59723e-10
-2.81649e-10
-3.03659e-10
-3.25628e-10
-3.47605e-10
-3.69573e-10
-3.91555e-10
-4.13542e-10
-4.35552e-10
-4.57524e-10
-4.79519e-10
-5.01494e-10
-5.2348e-10
-5.45463e-10
-5.67437e-10
-5.89441e-10
-6.11409e-10
-6.33394e-10
-6.55396e-10
-6.77378e-10
-6.99366e-10
-7.21371e-10
-7.43309e-10
-7.65317e-10
-7.87325e-10
-8.09291e-10
-8.31285e-10
-8.53267e-10
-8.75249e-10
-8.97237e-10
-9.1922e-10
-9.41209e-10
-9.63194e-10
-9.85185e-10
-1.00717e-09
-1.02915e-09
-1.05113e-09
-1.0731e-09
-1.09512e-09
-1.1171e-09
-1.13906e-09
-1.16108e-09
-1.18307e-09
-1.20508e-09
-1.22707e-09
-1.24908e-09
-1.27111e-09
-1.29314e-09
-1.31519e-09
-1.33732e-09
-1.35948e-09
-1.38172e-09
-1.40407e-09
-1.42656e-09
-1.44928e-09
-1.47233e-09
-1.49583e-09
-1.51998e-09
-1.54504e-09
-1.57141e-09
-1.59957e-09
-1.63027e-09
-1.66449e-09
-1.70354e-09
-1.7491e-09
-1.80344e-09
-1.8691e-09
-1.94765e-09
-2.03416e-09
-2.16356e-09
-2.35954e-09
1.20548e-10
-2.22708e-11
-3.8132e-11
-5.99964e-11
-8.26849e-11
-1.052e-10
-1.27469e-10
-1.49635e-10
-1.7172e-10
-1.93728e-10
-2.15759e-10
-2.37725e-10
-2.59688e-10
-2.817e-10
-3.03654e-10
-3.25643e-10
-3.47605e-10
-3.69611e-10
-3.91603e-10
-4.13578e-10
-4.35536e-10
-4.57528e-10
-4.79508e-10
-5.01495e-10
-5.23482e-10
-5.45465e-10
-5.67472e-10
-5.89439e-10
-6.11439e-10
-6.33424e-10
-6.55402e-10
-6.77382e-10
-6.99381e-10
-7.21334e-10
-7.43365e-10
-7.65344e-10
-7.87296e-10
-8.09303e-10
-8.31295e-10
-8.53264e-10
-8.75262e-10
-8.97238e-10
-9.19242e-10
-9.41209e-10
-9.63212e-10
-9.85181e-10
-1.00717e-09
-1.02916e-09
-1.05114e-09
-1.07315e-09
-1.09511e-09
-1.11711e-09
-1.13912e-09
-1.16108e-09
-1.18307e-09
-1.20507e-09
-1.22708e-09
-1.24908e-09
-1.2711e-09
-1.29315e-09
-1.31522e-09
-1.33731e-09
-1.35946e-09
-1.38168e-09
-1.40402e-09
-1.4265e-09
-1.44921e-09
-1.47224e-09
-1.4957e-09
-1.51984e-09
-1.5448e-09
-1.57109e-09
-1.59916e-09
-1.6297e-09
-1.66377e-09
-1.70263e-09
-1.74789e-09
-1.8019e-09
-1.86712e-09
-1.94568e-09
-2.03672e-09
-2.1495e-09
-2.36191e-09
1.4476e-10
-3.02044e-11
-4.05746e-11
-5.99959e-11
-8.26217e-11
-1.05144e-10
-1.2745e-10
-1.49607e-10
-1.71698e-10
-1.9373e-10
-2.1572e-10
-2.37727e-10
-2.59705e-10
-2.8165e-10
-3.03652e-10
-3.25626e-10
-3.47603e-10
-3.69578e-10
-3.91555e-10
-4.13543e-10
-4.35541e-10
-4.5752e-10
-4.79505e-10
-5.01498e-10
-5.23477e-10
-5.45468e-10
-5.67439e-10
-5.89435e-10
-6.11418e-10
-6.33397e-10
-6.55382e-10
-6.77375e-10
-6.99359e-10
-7.21366e-10
-7.43323e-10
-7.6531e-10
-7.8732e-10
-8.09298e-10
-8.31276e-10
-8.53277e-10
-8.75257e-10
-8.97236e-10
-9.19227e-10
-9.41209e-10
-9.6319e-10
-9.85183e-10
-1.00717e-09
-1.02914e-09
-1.05114e-09
-1.07311e-09
-1.09511e-09
-1.11709e-09
-1.13906e-09
-1.16108e-09
-1.18306e-09
-1.20507e-09
-1.22706e-09
-1.24907e-09
-1.27109e-09
-1.29312e-09
-1.31518e-09
-1.33727e-09
-1.35942e-09
-1.38164e-09
-1.40397e-09
-1.42644e-09
-1.44912e-09
-1.47211e-09
-1.49555e-09
-1.51954e-09
-1.54455e-09
-1.57076e-09
-1.59866e-09
-1.62905e-09
-1.66287e-09
-1.70151e-09
-1.74643e-09
-1.79999e-09
-1.86465e-09
-1.93972e-09
-2.02754e-09
-2.12984e-09
-1.34511e-11
-4.04206e-11
-5.97448e-11
-8.25251e-11
-1.05116e-10
-1.27431e-10
-1.49601e-10
-1.71694e-10
-1.93728e-10
-2.15737e-10
-2.37717e-10
-2.59694e-10
-2.81691e-10
-3.0365e-10
-3.25636e-10
-3.47618e-10
-3.69599e-10
-3.91588e-10
-4.13572e-10
-4.35548e-10
-4.57529e-10
-4.79518e-10
-5.01494e-10
-5.23488e-10
-5.45466e-10
-5.67468e-10
-5.89444e-10
-6.11427e-10
-6.3342e-10
-6.5541e-10
-6.77385e-10
-6.99374e-10
-7.21347e-10
-7.43354e-10
-7.6534e-10
-7.87309e-10
-8.09301e-10
-8.31299e-10
-8.53275e-10
-8.75264e-10
-8.97255e-10
-9.19236e-10
-9.41218e-10
-9.63212e-10
-9.85183e-10
-1.00717e-09
-1.02916e-09
-1.05114e-09
-1.07313e-09
-1.09511e-09
-1.11711e-09
-1.13911e-09
-1.16108e-09
-1.18307e-09
-1.20506e-09
-1.22707e-09
-1.24908e-09
-1.27108e-09
-1.29312e-09
-1.31518e-09
-1.33727e-09
-1.35941e-09
-1.38162e-09
-1.40393e-09
-1.42638e-09
-1.44904e-09
-1.47201e-09
-1.49539e-09
-1.51942e-09
-1.54427e-09
-1.57042e-09
-1.59815e-09
-1.62837e-09
-1.66195e-09
-1.7004e-09
-1.74482e-09
-1.79788e-09
-1.86218e-09
-1.93616e-09
-2.04047e-09
-1.47307e-13
-3.97075e-11
-5.93814e-11
-8.23509e-11
-1.05009e-10
-1.27363e-10
-1.49561e-10
-1.71663e-10
-1.93705e-10
-2.15711e-10
-2.37713e-10
-2.59695e-10
-2.81648e-10
-3.03645e-10
-3.25632e-10
-3.47598e-10
-3.69588e-10
-3.91564e-10
-4.1355e-10
-4.35534e-10
-4.57524e-10
-4.795e-10
-5.01501e-10
-5.23478e-10
-5.45465e-10
-5.67446e-10
-5.89433e-10
-6.11429e-10
-6.33403e-10
-6.55375e-10
-6.77385e-10
-6.99359e-10
-7.21353e-10
-7.43333e-10
-7.65317e-10
-7.87309e-10
-8.09302e-10
-8.31277e-10
-8.53274e-10
-8.75256e-10
-8.97236e-10
-9.19229e-10
-9.41205e-10
-9.63187e-10
-9.85179e-10
-1.00717e-09
-1.02914e-09
-1.05113e-09
-1.07312e-09
-1.09511e-09
-1.11709e-09
-1.13907e-09
-1.16107e-09
-1.18305e-09
-1.20506e-09
-1.22705e-09
-1.24904e-09
-1.27107e-09
-1.29309e-09
-1.31515e-09
-1.33722e-09
-1.35935e-09
-1.38155e-09
-1.40384e-09
-1.42627e-09
-1.44892e-09
-1.47182e-09
-1.4952e-09
-1.51908e-09
-1.54391e-09
-1.56974e-09
-1.59748e-09
-1.62749e-09
-1.66073e-09
-1.69838e-09
-1.74258e-09
-1.79516e-09
-1.85876e-09
-1.93087e-09
-2.04933e-09
-1.58129e-11
-3.19377e-11
-5.72969e-11
-8.15179e-11
-1.04596e-10
-1.27145e-10
-1.49431e-10
-1.71568e-10
-1.93652e-10
-2.15682e-10
-2.37687e-10
-2.5968e-10
-2.81661e-10
-3.03652e-10
-3.25624e-10
-3.47605e-10
-3.69591e-10
-3.91574e-10
-4.13556e-10
-4.35538e-10
-4.57532e-10
-4.79513e-10
-5.01484e-10
-5.23484e-10
-5.45466e-10
-5.6746e-10
-5.89444e-10
-6.11425e-10
-6.33402e-10
-6.55402e-10
-6.77383e-10
-6.99368e-10
-7.21345e-10
-7.43345e-10
-7.65332e-10
-7.87312e-10
-8.09295e-10
-8.31278e-10
-8.5327e-10
-8.7526e-10
-8.97238e-10
-9.19224e-10
-9.41215e-10
-9.63194e-10
-9.85193e-10
-1.00717e-09
-1.02917e-09
-1.05115e-09
-1.07314e-09
-1.09513e-09
-1.11712e-09
-1.13911e-09
-1.16111e-09
-1.1831e-09
-1.20512e-09
-1.22713e-09
-1.24916e-09
-1.27118e-09
-1.29324e-09
-1.31532e-09
-1.33746e-09
-1.35961e-09
-1.38185e-09
-1.4042e-09
-1.42669e-09
-1.44938e-09
-1.47234e-09
-1.49572e-09
-1.51966e-09
-1.54435e-09
-1.57018e-09
-1.59748e-09
-1.62704e-09
-1.65943e-09
-1.69615e-09
-1.73875e-09
-1.78962e-09
-1.85194e-09
-1.92878e-09
-2.01649e-09
1.45227e-10
-2.34723e-11
-3.36083e-11
-5.79141e-11
-8.1782e-11
-1.04746e-10
-1.27233e-10
-1.49492e-10
-1.7161e-10
-1.93676e-10
-2.15706e-10
-2.37696e-10
-2.59685e-10
-2.8168e-10
-3.03645e-10
-3.25637e-10
-3.47625e-10
-3.69595e-10
-3.91576e-10
-4.13567e-10
-4.3555e-10
-4.57524e-10
-4.79516e-10
-5.01512e-10
-5.23493e-10
-5.45478e-10
-5.67459e-10
-5.89445e-10
-6.11435e-10
-6.33436e-10
-6.55401e-10
-6.77389e-10
-6.99379e-10
-7.21367e-10
-7.43347e-10
-7.65323e-10
-7.87314e-10
-8.09315e-10
-8.3129e-10
-8.53271e-10
-8.75267e-10
-8.97251e-10
-9.19231e-10
-9.41215e-10
-9.63203e-10
-9.852e-10
-1.00719e-09
-1.02916e-09
-1.05115e-09
-1.07314e-09
-1.09515e-09
-1.11713e-09
-1.13912e-09
-1.16111e-09
-1.18312e-09
-1.20512e-09
-1.22713e-09
-1.24915e-09
-1.27121e-09
-1.29326e-09
-1.31533e-09
-1.33745e-09
-1.35962e-09
-1.38186e-09
-1.40423e-09
-1.42673e-09
-1.44944e-09
-1.47244e-09
-1.49585e-09
-1.51985e-09
-1.54467e-09
-1.57061e-09
-1.59819e-09
-1.62796e-09
-1.66083e-09
-1.69802e-09
-1.7412e-09
-1.79264e-09
-1.85551e-09
-1.93287e-09
-2.01447e-09
-2.09586e-09
1.3143e-10
-1.16666e-11
-3.42913e-11
-5.83431e-11
-8.19628e-11
-1.04825e-10
-1.27275e-10
-1.49495e-10
-1.71619e-10
-1.93682e-10
-2.15695e-10
-2.37714e-10
-2.59689e-10
-2.81656e-10
-3.03666e-10
-3.25628e-10
-3.47594e-10
-3.69593e-10
-3.91578e-10
-4.13554e-10
-4.35543e-10
-4.57537e-10
-4.79512e-10
-5.01485e-10
-5.23484e-10
-5.45464e-10
-5.67462e-10
-5.89443e-10
-6.11422e-10
-6.33395e-10
-6.55405e-10
-6.77389e-10
-6.99355e-10
-7.21352e-10
-7.43339e-10
-7.65344e-10
-7.87323e-10
-8.09273e-10
-8.31284e-10
-8.53278e-10
-8.75256e-10
-8.9723e-10
-9.19232e-10
-9.4122e-10
-9.63201e-10
-9.85184e-10
-1.00717e-09
-1.02916e-09
-1.05115e-09
-1.07315e-09
-1.09512e-09
-1.11713e-09
-1.13911e-09
-1.16111e-09
-1.18311e-09
-1.20511e-09
-1.22714e-09
-1.24915e-09
-1.27117e-09
-1.29323e-09
-1.31531e-09
-1.33746e-09
-1.35962e-09
-1.38187e-09
-1.40423e-09
-1.42675e-09
-1.44945e-09
-1.4725e-09
-1.49594e-09
-1.51998e-09
-1.54486e-09
-1.57095e-09
-1.59867e-09
-1.6286e-09
-1.66186e-09
-1.69955e-09
-1.7433e-09
-1.79543e-09
-1.85895e-09
-1.93703e-09
-2.03189e-09
-2.10348e-09
-2.3103e-09
1.50383e-10
-1.36408e-11
-3.52384e-11
-5.87734e-11
-8.21423e-11
-1.04906e-10
-1.27328e-10
-1.49543e-10
-1.71641e-10
-1.93695e-10
-2.15713e-10
-2.37715e-10
-2.59694e-10
-2.81665e-10
-3.03644e-10
-3.25646e-10
-3.4763e-10
-3.69592e-10
-3.91581e-10
-4.13572e-10
-4.35549e-10
-4.57505e-10
-4.7951e-10
-5.01526e-10
-5.23492e-10
-5.45474e-10
-5.67458e-10
-5.89433e-10
-6.1144e-10
-6.33437e-10
-6.55394e-10
-6.77392e-10
-6.99378e-10
-7.2137e-10
-7.43344e-10
-7.6532e-10
-7.87302e-10
-8.09329e-10
-8.31296e-10
-8.53254e-10
-8.75267e-10
-8.97253e-10
-9.19223e-10
-9.41219e-10
-9.63194e-10
-9.85201e-10
-1.00718e-09
-1.02917e-09
-1.05115e-09
-1.07313e-09
-1.09515e-09
-1.11712e-09
-1.13912e-09
-1.1611e-09
-1.18312e-09
-1.20511e-09
-1.22713e-09
-1.24915e-09
-1.2712e-09
-1.29326e-09
-1.31533e-09
-1.33743e-09
-1.35961e-09
-1.38188e-09
-1.40424e-09
-1.42678e-09
-1.44951e-09
-1.47254e-09
-1.49604e-09
-1.52012e-09
-1.54511e-09
-1.57125e-09
-1.59912e-09
-1.62933e-09
-1.66292e-09
-1.70095e-09
-1.74524e-09
-1.79797e-09
-1.86206e-09
-1.94045e-09
-2.0343e-09
-2.05751e-09
-2.33109e-09
1.08618e-10
-9.40915e-12
-3.56151e-11
-5.91501e-11
-8.23274e-11
-1.04999e-10
-1.27379e-10
-1.49588e-10
-1.71662e-10
-1.93723e-10
-2.15732e-10
-2.37728e-10
-2.59695e-10
-2.81685e-10
-3.03667e-10
-3.25634e-10
-3.47594e-10
-3.69593e-10
-3.91586e-10
-4.13561e-10
-4.35543e-10
-4.57554e-10
-4.79513e-10
-5.01487e-10
-5.23499e-10
-5.4547e-10
-5.67462e-10
-5.89443e-10
-6.11427e-10
-6.33408e-10
-6.55409e-10
-6.77386e-10
-6.99377e-10
-7.21351e-10
-7.4334e-10
-7.65339e-10
-7.87336e-10
-8.09287e-10
-8.31291e-10
-8.53285e-10
-8.75265e-10
-8.97233e-10
-9.19243e-10
-9.4122e-10
-9.632e-10
-9.85196e-10
-1.00718e-09
-1.02916e-09
-1.05116e-09
-1.07315e-09
-1.09513e-09
-1.11714e-09
-1.13911e-09
-1.16111e-09
-1.1831e-09
-1.20513e-09
-1.22713e-09
-1.24914e-09
-1.27117e-09
-1.29323e-09
-1.31531e-09
-1.33745e-09
-1.35963e-09
-1.38188e-09
-1.40427e-09
-1.42677e-09
-1.44951e-09
-1.47259e-09
-1.49609e-09
-1.52024e-09
-1.54524e-09
-1.57152e-09
-1.59952e-09
-1.62991e-09
-1.66365e-09
-1.70205e-09
-1.74677e-09
-1.80013e-09
-1.86483e-09
-1.94427e-09
-2.04248e-09
-2.10328e-09
-2.32421e-09
8.92258e-11
-1.27712e-11
-3.713e-11
-5.96641e-11
-8.25574e-11
-1.05131e-10
-1.27494e-10
-1.49632e-10
-1.71734e-10
-1.93749e-10
-2.15754e-10
-2.37768e-10
-2.59726e-10
-2.81669e-10
-3.0367e-10
-3.2564e-10
-3.47646e-10
-3.69614e-10
-3.91589e-10
-4.1357e-10
-4.35558e-10
-4.57501e-10
-4.79547e-10
-5.01544e-10
-5.23482e-10
-5.45476e-10
-5.67473e-10
-5.89438e-10
-6.11458e-10
-6.33432e-10
-6.55411e-10
-6.77392e-10
-6.99397e-10
-7.21378e-10
-7.43348e-10
-7.65321e-10
-7.87334e-10
-8.09326e-10
-8.31307e-10
-8.53269e-10
-8.75294e-10
-8.97265e-10
-9.19225e-10
-9.41242e-10
-9.63211e-10
-9.85209e-10
-1.00719e-09
-1.02918e-09
-1.05114e-09
-1.07316e-09
-1.09513e-09
-1.11712e-09
-1.13912e-09
-1.16111e-09
-1.18312e-09
-1.2051e-09
-1.22714e-09
-1.24916e-09
-1.27119e-09
-1.29325e-09
-1.31533e-09
-1.33743e-09
-1.35962e-09
-1.38188e-09
-1.40424e-09
-1.42681e-09
-1.44954e-09
-1.47265e-09
-1.49615e-09
-1.52033e-09
-1.54541e-09
-1.57172e-09
-1.59987e-09
-1.63045e-09
-1.66444e-09
-1.70313e-09
-1.74826e-09
-1.80201e-09
-1.86706e-09
-1.94621e-09
-2.04536e-09
-2.15273e-09
-2.32209e-09
8.0254e-11
-1.62951e-11
-3.81748e-11
-5.99732e-11
-8.27128e-11
-1.05208e-10
-1.27529e-10
-1.49657e-10
-1.71737e-10
-1.93765e-10
-2.15767e-10
-2.37733e-10
-2.59717e-10
-2.81703e-10
-3.03672e-10
-3.25644e-10
-3.47603e-10
-3.69593e-10
-3.9159e-10
-4.13561e-10
-4.35536e-10
-4.57548e-10
-4.79493e-10
-5.01486e-10
-5.23515e-10
-5.45469e-10
-5.67456e-10
-5.89451e-10
-6.11417e-10
-6.33422e-10
-6.55403e-10
-6.77393e-10
-6.99365e-10
-7.21353e-10
-7.43346e-10
-7.65337e-10
-7.87324e-10
-8.09311e-10
-8.31302e-10
-8.53269e-10
-8.75267e-10
-8.97255e-10
-9.1924e-10
-9.41231e-10
-9.63179e-10
-9.85196e-10
-1.00718e-09
-1.02917e-09
-1.05117e-09
-1.07313e-09
-1.09513e-09
-1.11713e-09
-1.13912e-09
-1.16111e-09
-1.18309e-09
-1.20512e-09
-1.22709e-09
-1.24912e-09
-1.27117e-09
-1.29323e-09
-1.31531e-09
-1.33743e-09
-1.35961e-09
-1.38187e-09
-1.40424e-09
-1.42676e-09
-1.44955e-09
-1.4726e-09
-1.49617e-09
-1.52037e-09
-1.54549e-09
-1.57188e-09
-1.6001e-09
-1.6308e-09
-1.66498e-09
-1.70391e-09
-1.7493e-09
-1.80346e-09
-1.86872e-09
-1.9475e-09
-2.04509e-09
-2.1702e-09
-2.32228e-09
5.21096e-11
-1.47433e-11
-3.75244e-11
-6.01088e-11
-8.27928e-11
-1.05275e-10
-1.27558e-10
-1.49686e-10
-1.71754e-10
-1.93781e-10
-2.15777e-10
-2.37762e-10
-2.59746e-10
-2.81697e-10
-3.0366e-10
-3.25657e-10
-3.47635e-10
-3.69625e-10
-3.9159e-10
-4.13566e-10
-4.35551e-10
-4.57536e-10
-4.79551e-10
-5.01525e-10
-5.23469e-10
-5.45479e-10
-5.6747e-10
-5.89441e-10
-6.11462e-10
-6.33424e-10
-6.55421e-10
-6.7738e-10
-6.99398e-10
-7.21374e-10
-7.43339e-10
-7.65334e-10
-7.87335e-10
-8.09304e-10
-8.31295e-10
-8.53285e-10
-8.75266e-10
-8.97248e-10
-9.19227e-10
-9.41231e-10
-9.63211e-10
-9.85206e-10
-1.00719e-09
-1.02918e-09
-1.05114e-09
-1.07315e-09
-1.09514e-09
-1.11713e-09
-1.13911e-09
-1.1611e-09
-1.1831e-09
-1.20512e-09
-1.22714e-09
-1.24915e-09
-1.27118e-09
-1.29322e-09
-1.31528e-09
-1.33742e-09
-1.35961e-09
-1.38186e-09
-1.40423e-09
-1.4268e-09
-1.44952e-09
-1.47267e-09
-1.49618e-09
-1.52041e-09
-1.54553e-09
-1.572e-09
-1.60027e-09
-1.63105e-09
-1.66536e-09
-1.70449e-09
-1.75013e-09
-1.80448e-09
-1.87014e-09
-1.95012e-09
-2.04846e-09
-2.21031e-09
-2.32579e-09
4.97062e-11
-1.80928e-11
-3.84398e-11
-6.02453e-11
-8.2865e-11
-1.0531e-10
-1.27588e-10
-1.49683e-10
-1.71766e-10
-1.93782e-10
-2.15785e-10
-2.37722e-10
-2.59733e-10
-2.817e-10
-3.03706e-10
-3.25629e-10
-3.47643e-10
-3.69582e-10
-3.9158e-10
-4.13572e-10
-4.35549e-10
-4.57525e-10
-4.795e-10
-5.01491e-10
-5.23516e-10
-5.45477e-10
-5.67444e-10
-5.89455e-10
-6.11418e-10
-6.33426e-10
-6.55404e-10
-6.77398e-10
-6.9936e-10
-7.2136e-10
-7.43361e-10
-7.65313e-10
-7.87327e-10
-8.09301e-10
-8.31291e-10
-8.53277e-10
-8.75263e-10
-8.97243e-10
-9.19231e-10
-9.4123e-10
-9.63201e-10
-9.85197e-10
-1.00716e-09
-1.02915e-09
-1.05118e-09
-1.07314e-09
-1.09512e-09
-1.11711e-09
-1.13913e-09
-1.16112e-09
-1.18311e-09
-1.2051e-09
-1.22708e-09
-1.24909e-09
-1.27116e-09
-1.29321e-09
-1.31531e-09
-1.33741e-09
-1.35959e-09
-1.38185e-09
-1.40421e-09
-1.42674e-09
-1.44952e-09
-1.47259e-09
-1.49618e-09
-1.52038e-09
-1.54556e-09
-1.57202e-09
-1.60035e-09
-1.6312e-09
-1.66558e-09
-1.70483e-09
-1.75063e-09
-1.80514e-09
-1.87099e-09
-1.95046e-09
-2.04745e-09
-2.21055e-09
-2.32807e-09
4.87344e-11
-1.58075e-11
-3.76625e-11
-6.02435e-11
-8.29118e-11
-1.05335e-10
-1.27586e-10
-1.49734e-10
-1.71759e-10
-1.93794e-10
-2.15754e-10
-2.37775e-10
-2.59748e-10
-2.81697e-10
-3.03643e-10
-3.25663e-10
-3.47626e-10
-3.6963e-10
-3.91577e-10
-4.13561e-10
-4.35546e-10
-4.57565e-10
-4.79538e-10
-5.01502e-10
-5.23476e-10
-5.45457e-10
-5.67486e-10
-5.89443e-10
-6.11452e-10
-6.33418e-10
-6.55409e-10
-6.7738e-10
-6.99402e-10
-7.21374e-10
-7.43333e-10
-7.65323e-10
-7.87328e-10
-8.09299e-10
-8.31288e-10
-8.5327e-10
-8.7526e-10
-8.9724e-10
-9.19231e-10
-9.41222e-10
-9.6319e-10
-9.85193e-10
-1.00718e-09
-1.02919e-09
-1.05113e-09
-1.07313e-09
-1.09515e-09
-1.11713e-09
-1.1391e-09
-1.16109e-09
-1.18307e-09
-1.20511e-09
-1.22714e-09
-1.24913e-09
-1.27116e-09
-1.2932e-09
-1.31525e-09
-1.33741e-09
-1.35957e-09
-1.38183e-09
-1.40419e-09
-1.42675e-09
-1.44947e-09
-1.47261e-09
-1.49613e-09
-1.52037e-09
-1.5455e-09
-1.57201e-09
-1.60034e-09
-1.63124e-09
-1.66565e-09
-1.70495e-09
-1.7508e-09
-1.80544e-09
-1.87145e-09
-1.95185e-09
-2.05011e-09
-2.21193e-09
-2.32966e-09
4.78157e-11
-1.71357e-11
-3.81181e-11
-6.03035e-11
-8.29159e-11
-1.05357e-10
-1.27607e-10
-1.49685e-10
-1.71773e-10
-1.93793e-10
-2.15794e-10
-2.37739e-10
-2.59731e-10
-2.81702e-10
-3.03706e-10
-3.25623e-10
-3.47658e-10
-3.69579e-10
-3.91595e-10
-4.13581e-10
-4.35544e-10
-4.57507e-10
-4.79504e-10
-5.0152e-10
-5.2351e-10
-5.45496e-10
-5.67436e-10
-5.89455e-10
-6.11437e-10
-6.33429e-10
-6.55409e-10
-6.77394e-10
-6.99358e-10
-7.21352e-10
-7.43363e-10
-7.65316e-10
-7.87335e-10
-8.09291e-10
-8.31283e-10
-8.53268e-10
-8.7526e-10
-8.97232e-10
-9.19227e-10
-9.4122e-10
-9.63203e-10
-9.8519e-10
-1.00717e-09
-1.02915e-09
-1.05118e-09
-1.07315e-09
-1.0951e-09
-1.11711e-09
-1.13913e-09
-1.16111e-09
-1.18312e-09
-1.20509e-09
-1.22706e-09
-1.2491e-09
-1.27115e-09
-1.2932e-09
-1.31529e-09
-1.33736e-09
-1.35955e-09
-1.3818e-09
-1.40416e-09
-1.42669e-09
-1.44946e-09
-1.47253e-09
-1.4961e-09
-1.52029e-09
-1.54544e-09
-1.57192e-09
-1.60027e-09
-1.6311e-09
-1.66555e-09
-1.70485e-09
-1.75075e-09
-1.80534e-09
-1.87137e-09
-1.95147e-09
-2.04913e-09
-2.21168e-09
-2.33046e-09
4.77871e-11
-1.7141e-11
-3.81198e-11
-6.02902e-11
-8.29229e-11
-1.05345e-10
-1.27604e-10
-1.49727e-10
-1.71768e-10
-1.93792e-10
-2.15762e-10
-2.37759e-10
-2.59757e-10
-2.81693e-10
-3.03641e-10
-3.25644e-10
-3.47633e-10
-3.69622e-10
-3.91552e-10
-4.13552e-10
-4.35558e-10
-4.57576e-10
-4.79536e-10
-5.01489e-10
-5.23484e-10
-5.45452e-10
-5.6748e-10
-5.89448e-10
-6.11427e-10
-6.33412e-10
-6.5539e-10
-6.77392e-10
-6.99392e-10
-7.21351e-10
-7.43344e-10
-7.65339e-10
-7.87302e-10
-8.09299e-10
-8.31279e-10
-8.53275e-10
-8.75249e-10
-8.97248e-10
-9.19224e-10
-9.41222e-10
-9.63198e-10
-9.85192e-10
-1.00717e-09
-1.02917e-09
-1.05113e-09
-1.07311e-09
-1.09514e-09
-1.11712e-09
-1.13909e-09
-1.16109e-09
-1.18306e-09
-1.2051e-09
-1.22713e-09
-1.24911e-09
-1.27114e-09
-1.29318e-09
-1.31522e-09
-1.33739e-09
-1.35953e-09
-1.38178e-09
-1.40414e-09
-1.42667e-09
-1.44939e-09
-1.47249e-09
-1.496e-09
-1.52021e-09
-1.54533e-09
-1.57176e-09
-1.60007e-09
-1.63091e-09
-1.66528e-09
-1.70453e-09
-1.7503e-09
-1.80488e-09
-1.87082e-09
-1.95081e-09
-2.04842e-09
-2.21095e-09
-2.32958e-09
4.87285e-11
-1.59813e-11
-3.77094e-11
-6.02565e-11
-8.28968e-11
-1.05347e-10
-1.27581e-10
-1.49713e-10
-1.71745e-10
-1.93787e-10
-2.15784e-10
-2.37752e-10
-2.59731e-10
-2.81719e-10
-3.0368e-10
-3.25631e-10
-3.47657e-10
-3.69596e-10
-3.91587e-10
-4.13584e-10
-4.3554e-10
-4.57512e-10
-4.79501e-10
-5.01519e-10
-5.23506e-10
-5.45495e-10
-5.67447e-10
-5.89449e-10
-6.11425e-10
-6.33433e-10
-6.55429e-10
-6.77395e-10
-6.99366e-10
-7.2135e-10
-7.43342e-10
-7.65331e-10
-7.8735e-10
-8.09297e-10
-8.31278e-10
-8.53263e-10
-8.75259e-10
-8.97247e-10
-9.19227e-10
-9.4122e-10
-9.63198e-10
-9.85194e-10
-1.00717e-09
-1.02915e-09
-1.05117e-09
-1.07316e-09
-1.09511e-09
-1.11711e-09
-1.13913e-09
-1.1611e-09
-1.18312e-09
-1.20509e-09
-1.22705e-09
-1.24912e-09
-1.27113e-09
-1.29318e-09
-1.31527e-09
-1.33734e-09
-1.35951e-09
-1.38173e-09
-1.40409e-09
-1.4266e-09
-1.44935e-09
-1.4724e-09
-1.49591e-09
-1.52008e-09
-1.54518e-09
-1.57158e-09
-1.5998e-09
-1.63056e-09
-1.66485e-09
-1.70397e-09
-1.74963e-09
-1.80403e-09
-1.86979e-09
-1.95015e-09
-2.04824e-09
-2.20979e-09
-2.32809e-09
4.96545e-11
-1.80163e-11
-3.84371e-11
-6.02434e-11
-8.28563e-11
-1.05306e-10
-1.27575e-10
-1.49696e-10
-1.71754e-10
-1.93776e-10
-2.15783e-10
-2.37737e-10
-2.59738e-10
-2.8168e-10
-3.03653e-10
-3.25632e-10
-3.47628e-10
-3.69609e-10
-3.91556e-10
-4.13549e-10
-4.35552e-10
-4.5756e-10
-4.7953e-10
-5.01494e-10
-5.23474e-10
-5.45458e-10
-5.67468e-10
-5.89454e-10
-6.11441e-10
-6.33409e-10
-6.55366e-10
-6.77397e-10
-6.99372e-10
-7.21386e-10
-7.43339e-10
-7.65335e-10
-7.87316e-10
-8.09301e-10
-8.31276e-10
-8.53284e-10
-8.75256e-10