/*--------------------------------*- C++ -*----------------------------------*\
| =========                 |                                                 |
| \\      /  F ield         | OpenFOAM: The Open Source CFD Toolbox           |
|  \\    /   O peration     | Version:  v1906                                 |
|   \\  /    A nd           | Web:      www.OpenFOAM.com                      |
|    \\/     M anipulation  |                                                 |
\*---------------------------------------------------------------------------*/
FoamFile
{
    version     2.0;
    format      ascii;
    class       volScalarField;
    location    "0.11";
    object      p;
}
// * * * * * * * * * * * * * * * * * * * * * * * * * * * * * * * * * * * * * //

dimensions      [0 2 -2 0 0 0 0];


internalField   nonuniform List<scalar> 
243374
(
-1.6315e-15
-1.73322e-09
-1.07615e-09
-1.06167e-09
-1.09873e-09
-1.14072e-09
-1.17056e-09
-1.22136e-09
-1.26125e-09
-1.30138e-09
-1.3308e-09
-1.3721e-09
-1.41011e-09
-1.44107e-09
-1.47123e-09
-1.49395e-09
-1.51622e-09
-1.54118e-09
-1.56012e-09
-1.58866e-09
-1.6115e-09
-1.63077e-09
-1.65836e-09
-1.67857e-09
-1.69665e-09
-1.72422e-09
-1.73752e-09
-1.76479e-09
-1.78762e-09
-1.81058e-09
-1.82828e-09
-1.85303e-09
-1.87568e-09
-1.8957e-09
-1.91928e-09
-1.94068e-09
-1.95989e-09
-1.98795e-09
-2.00529e-09
-2.02514e-09
-2.04825e-09
-2.07407e-09
-2.0919e-09
-2.11802e-09
-2.13842e-09
-2.16451e-09
-2.18233e-09
-2.20398e-09
-2.22997e-09
-2.25091e-09
-2.27533e-09
-2.29505e-09
-2.3152e-09
-2.33723e-09
-2.35627e-09
-2.38361e-09
-2.40712e-09
-2.42832e-09
-2.44602e-09
-2.47019e-09
-2.49228e-09
-2.51559e-09
-2.54223e-09
-2.56323e-09
-2.5927e-09
-2.62054e-09
-2.65557e-09
-2.68139e-09
-2.71529e-09
-2.76015e-09
-2.80111e-09
-2.85234e-09
-2.91549e-09
-2.99389e-09
-3.0855e-09
-3.19872e-09
-3.34657e-09
-3.48661e-09
-3.0164e-09
-5.05492e-09
-2.40122e-09
-1.39079e-09
-1.0877e-09
-1.0766e-09
-1.10521e-09
-1.14572e-09
-1.18901e-09
-1.22851e-09
-1.26954e-09
-1.30482e-09
-1.34428e-09
-1.38585e-09
-1.42124e-09
-1.45197e-09
-1.48024e-09
-1.50504e-09
-1.53055e-09
-1.55299e-09
-1.57066e-09
-1.59825e-09
-1.6238e-09
-1.63964e-09
-1.66537e-09
-1.68715e-09
-1.70732e-09
-1.73312e-09
-1.75456e-09
-1.77522e-09
-1.79629e-09
-1.81965e-09
-1.84435e-09
-1.86131e-09
-1.88254e-09
-1.90625e-09
-1.92902e-09
-1.95213e-09
-1.96946e-09
-1.99525e-09
-2.01295e-09
-2.03666e-09
-2.05602e-09
-2.08071e-09
-2.10622e-09
-2.12447e-09
-2.15276e-09
-2.17378e-09
-2.19498e-09
-2.21381e-09
-2.23813e-09
-2.26126e-09
-2.28421e-09
-2.30404e-09
-2.32202e-09
-2.35038e-09
-2.36721e-09
-2.39278e-09
-2.41575e-09
-2.43701e-09
-2.46161e-09
-2.47938e-09
-2.50418e-09
-2.52787e-09
-2.55107e-09
-2.57308e-09
-2.60192e-09
-2.63139e-09
-2.66524e-09
-2.69442e-09
-2.73009e-09
-2.76581e-09
-2.80663e-09
-2.85567e-09
-2.91908e-09
-2.99581e-09
-3.09202e-09
-3.20281e-09
-3.35582e-09
-3.50244e-09
-3.39936e-09
-2.69617e-09
-3.07793e-09
-1.236e-09
-1.06916e-09
-1.07613e-09
-1.1004e-09
-1.13657e-09
-1.17379e-09
-1.21717e-09
-1.25667e-09
-1.29882e-09
-1.3384e-09
-1.37563e-09
-1.41393e-09
-1.44461e-09
-1.47183e-09
-1.49763e-09
-1.51961e-09
-1.54329e-09
-1.56661e-09
-1.58963e-09
-1.61496e-09
-1.63637e-09
-1.65766e-09
-1.67931e-09
-1.70235e-09
-1.72426e-09
-1.74575e-09
-1.76855e-09
-1.78847e-09
-1.81209e-09
-1.83252e-09
-1.85851e-09
-1.8791e-09
-1.90043e-09
-1.92248e-09
-1.94437e-09
-1.96766e-09
-1.98895e-09
-2.01251e-09
-2.03332e-09
-2.05649e-09
-2.0777e-09
-2.09906e-09
-2.12271e-09
-2.14419e-09
-2.16561e-09
-2.18658e-09
-2.20931e-09
-2.23154e-09
-2.25245e-09
-2.27506e-09
-2.29738e-09
-2.32058e-09
-2.34039e-09
-2.36222e-09
-2.38551e-09
-2.40645e-09
-2.42941e-09
-2.45193e-09
-2.47645e-09
-2.49642e-09
-2.52259e-09
-2.54358e-09
-2.56691e-09
-2.59558e-09
-2.62811e-09
-2.65822e-09
-2.69157e-09
-2.72743e-09
-2.76018e-09
-2.80386e-09
-2.8541e-09
-2.91831e-09
-2.99692e-09
-3.09528e-09
-3.20806e-09
-3.36108e-09
-3.52833e-09
-3.56851e-09
-2.00528e-09
-9.73615e-10
5.55433e-09
-8.06894e-10
-1.05265e-09
-1.07167e-09
-1.09803e-09
-1.13263e-09
-1.16991e-09
-1.21236e-09
-1.25431e-09
-1.29618e-09
-1.3385e-09
-1.37961e-09
-1.41481e-09
-1.4459e-09
-1.47308e-09
-1.49833e-09
-1.52171e-09
-1.54292e-09
-1.56593e-09
-1.58933e-09
-1.61371e-09
-1.63461e-09
-1.65685e-09
-1.6798e-09
-1.69962e-09
-1.72449e-09
-1.74645e-09
-1.76712e-09
-1.78844e-09
-1.81195e-09
-1.83318e-09
-1.85599e-09
-1.87816e-09
-1.89878e-09
-1.92036e-09
-1.94302e-09
-1.96578e-09
-1.98653e-09
-2.01078e-09
-2.03247e-09
-2.05466e-09
-2.07613e-09
-2.09649e-09
-2.12034e-09
-2.14149e-09
-2.16575e-09
-2.18633e-09
-2.20717e-09
-2.22987e-09
-2.25242e-09
-2.27452e-09
-2.29669e-09
-2.31922e-09
-2.34167e-09
-2.36163e-09
-2.38531e-09
-2.40687e-09
-2.42827e-09
-2.45215e-09
-2.47452e-09
-2.49717e-09
-2.52009e-09
-2.54382e-09
-2.56883e-09
-2.59616e-09
-2.62666e-09
-2.65714e-09
-2.69078e-09
-2.72458e-09
-2.75984e-09
-2.801e-09
-2.85283e-09
-2.91951e-09
-3.00097e-09
-3.09941e-09
-3.21782e-09
-3.36663e-09
-3.55124e-09
-3.97572e-09
-1.08127e-08
-4.86621e-09
-4.20702e-10
-4.40801e-09
-1.26675e-09
-1.05722e-09
-1.07201e-09
-1.09633e-09
-1.12785e-09
-1.16506e-09
-1.20627e-09
-1.24929e-09
-1.29232e-09
-1.33709e-09
-1.37618e-09
-1.4116e-09
-1.44403e-09
-1.47099e-09
-1.49562e-09
-1.51804e-09
-1.54089e-09
-1.56388e-09
-1.58613e-09
-1.61017e-09
-1.63199e-09
-1.65432e-09
-1.67627e-09
-1.69783e-09
-1.72118e-09
-1.74398e-09
-1.76492e-09
-1.7858e-09
-1.8089e-09
-1.82999e-09
-1.85352e-09
-1.87387e-09
-1.89642e-09
-1.91744e-09
-1.94e-09
-1.96349e-09
-1.98515e-09
-2.00936e-09
-2.03207e-09
-2.05337e-09
-2.07482e-09
-2.0948e-09
-2.11668e-09
-2.13825e-09
-2.16124e-09
-2.1819e-09
-2.20502e-09
-2.22751e-09
-2.24953e-09
-2.2711e-09
-2.29364e-09
-2.31646e-09
-2.33855e-09
-2.35911e-09
-2.38184e-09
-2.4038e-09
-2.42616e-09
-2.44813e-09
-2.47239e-09
-2.49469e-09
-2.51739e-09
-2.54111e-09
-2.56631e-09
-2.5937e-09
-2.62427e-09
-2.65568e-09
-2.68925e-09
-2.72261e-09
-2.75725e-09
-2.79972e-09
-2.85218e-09
-2.91985e-09
-3.00352e-09
-3.10398e-09
-3.22561e-09
-3.37683e-09
-3.5645e-09
-3.68995e-09
-8.29268e-10
-4.65367e-09
-4.88888e-09
1.07624e-09
2.4463e-09
-8.0882e-10
-1.04684e-09
-1.07279e-09
-1.09565e-09
-1.12452e-09
-1.16096e-09
-1.20287e-09
-1.2463e-09
-1.29139e-09
-1.33605e-09
-1.37555e-09
-1.41108e-09
-1.44289e-09
-1.47e-09
-1.49398e-09
-1.51722e-09
-1.54039e-09
-1.56232e-09
-1.58496e-09
-1.60922e-09
-1.6301e-09
-1.65324e-09
-1.67519e-09
-1.69689e-09
-1.71958e-09
-1.74265e-09
-1.76352e-09
-1.78468e-09
-1.80717e-09
-1.82882e-09
-1.85133e-09
-1.87303e-09
-1.89498e-09
-1.91527e-09
-1.93858e-09
-1.96232e-09
-1.98481e-09
-2.00828e-09
-2.03206e-09
-2.05243e-09
-2.07379e-09
-2.0941e-09
-2.11543e-09
-2.13626e-09
-2.15888e-09
-2.17964e-09
-2.20336e-09
-2.2257e-09
-2.24823e-09
-2.26994e-09
-2.29227e-09
-2.31494e-09
-2.33681e-09
-2.358e-09
-2.38007e-09
-2.40206e-09
-2.42415e-09
-2.44739e-09
-2.47083e-09
-2.49345e-09
-2.5157e-09
-2.53967e-09
-2.56555e-09
-2.59292e-09
-2.62243e-09
-2.65495e-09
-2.68811e-09
-2.72102e-09
-2.75697e-09
-2.79865e-09
-2.85216e-09
-2.92109e-09
-3.00595e-09
-3.10799e-09
-3.23025e-09
-3.38283e-09
-3.58026e-09
-4.01945e-09
-7.70106e-09
-4.88476e-09
-4.81531e-09
-4.49774e-10
-1.94998e-09
-1.06438e-09
-1.04915e-09
-1.07171e-09
-1.09426e-09
-1.12316e-09
-1.15951e-09
-1.20087e-09
-1.2446e-09
-1.2902e-09
-1.33495e-09
-1.37489e-09
-1.41042e-09
-1.44224e-09
-1.46952e-09
-1.49302e-09
-1.51661e-09
-1.54041e-09
-1.56083e-09
-1.58437e-09
-1.60771e-09
-1.62942e-09
-1.65257e-09
-1.67416e-09
-1.69645e-09
-1.71845e-09
-1.74202e-09
-1.76251e-09
-1.78398e-09
-1.80605e-09
-1.82823e-09
-1.85048e-09
-1.87186e-09
-1.89379e-09
-1.91487e-09
-1.93836e-09
-1.96114e-09
-1.98379e-09
-2.00692e-09
-2.03041e-09
-2.0501e-09
-2.07146e-09
-2.09351e-09
-2.11429e-09
-2.13553e-09
-2.15804e-09
-2.17949e-09
-2.20283e-09
-2.2248e-09
-2.24738e-09
-2.26954e-09
-2.29144e-09
-2.31406e-09
-2.33625e-09
-2.35704e-09
-2.37916e-09
-2.40072e-09
-2.42313e-09
-2.44654e-09
-2.46963e-09
-2.49276e-09
-2.51468e-09
-2.53908e-09
-2.56479e-09
-2.59235e-09
-2.62153e-09
-2.65484e-09
-2.68735e-09
-2.72034e-09
-2.75653e-09
-2.79883e-09
-2.8523e-09
-2.92192e-09
-3.00768e-09
-3.11036e-09
-3.23323e-09
-3.38633e-09
-3.58231e-09
-3.8046e-09
-3.05882e-09
-4.68944e-09
-4.89916e-09
-1.1768e-09
-2.13451e-09
-1.05864e-09
-1.04915e-09
-1.07192e-09
-1.09459e-09
-1.12322e-09
-1.15959e-09
-1.20094e-09
-1.24467e-09
-1.28995e-09
-1.3352e-09
-1.37547e-09
-1.41008e-09
-1.44273e-09
-1.47004e-09
-1.49354e-09
-1.51701e-09
-1.54047e-09
-1.56094e-09
-1.58455e-09
-1.60752e-09
-1.62985e-09
-1.65273e-09
-1.67363e-09
-1.69674e-09
-1.7183e-09
-1.74182e-09
-1.76276e-09
-1.78404e-09
-1.80622e-09
-1.82852e-09
-1.85068e-09
-1.87212e-09
-1.89335e-09
-1.91575e-09
-1.93853e-09
-1.96104e-09
-1.98291e-09
-2.00694e-09
-2.03057e-09
-2.05094e-09
-2.07194e-09
-2.09316e-09
-2.11442e-09
-2.1357e-09
-2.1587e-09
-2.17997e-09
-2.20319e-09
-2.22498e-09
-2.24781e-09
-2.26967e-09
-2.29157e-09
-2.31402e-09
-2.33653e-09
-2.3575e-09
-2.37915e-09
-2.40136e-09
-2.42352e-09
-2.44685e-09
-2.46968e-09
-2.49319e-09
-2.51489e-09
-2.53909e-09
-2.56501e-09
-2.59271e-09
-2.62232e-09
-2.65521e-09
-2.68739e-09
-2.72054e-09
-2.75679e-09
-2.79924e-09
-2.8528e-09
-2.92249e-09
-3.00848e-09
-3.11104e-09
-3.23387e-09
-3.38715e-09
-3.583e-09
-3.80035e-09
-3.24099e-09
-4.5362e-09
-4.89552e-09
-2.45449e-09
2.51658e-09
-8.38801e-10
-1.04718e-09
-1.07271e-09
-1.09579e-09
-1.12479e-09
-1.16117e-09
-1.20229e-09
-1.24621e-09
-1.29073e-09
-1.33639e-09
-1.37682e-09
-1.41087e-09
-1.44429e-09
-1.47167e-09
-1.49499e-09
-1.51754e-09
-1.54148e-09
-1.56267e-09
-1.58542e-09
-1.6083e-09
-1.63108e-09
-1.65332e-09
-1.67473e-09
-1.69797e-09
-1.71915e-09
-1.74251e-09
-1.7634e-09
-1.78452e-09
-1.80713e-09
-1.8299e-09
-1.85179e-09
-1.87323e-09
-1.8944e-09
-1.91603e-09
-1.93873e-09
-1.96059e-09
-1.98335e-09
-2.00694e-09
-2.02983e-09
-2.05058e-09
-2.07186e-09
-2.09256e-09
-2.11473e-09
-2.13647e-09
-2.15974e-09
-2.18144e-09
-2.20427e-09
-2.22605e-09
-2.24852e-09
-2.27101e-09
-2.29224e-09
-2.31424e-09
-2.33792e-09
-2.3587e-09
-2.38007e-09
-2.40254e-09
-2.42427e-09
-2.44788e-09
-2.47027e-09
-2.49428e-09
-2.51615e-09
-2.53956e-09
-2.56515e-09
-2.59379e-09
-2.6238e-09
-2.65523e-09
-2.68823e-09
-2.72116e-09
-2.75778e-09
-2.79946e-09
-2.85386e-09
-2.92309e-09
-3.00832e-09
-3.11e-09
-3.23268e-09
-3.38553e-09
-3.58303e-09
-4.06088e-09
-7.65804e-09
-4.64529e-09
-4.85144e-09
-2.27968e-09
-4.35642e-09
-1.16337e-09
-1.05429e-09
-1.07239e-09
-1.09672e-09
-1.12828e-09
-1.16527e-09
-1.20544e-09
-1.2493e-09
-1.29215e-09
-1.33798e-09
-1.37748e-09
-1.41164e-09
-1.44533e-09
-1.47222e-09
-1.49675e-09
-1.51876e-09
-1.54141e-09
-1.56374e-09
-1.58639e-09
-1.60841e-09
-1.63233e-09
-1.65342e-09
-1.676e-09
-1.69834e-09
-1.72049e-09
-1.74227e-09
-1.76454e-09
-1.78629e-09
-1.80771e-09
-1.83077e-09
-1.85225e-09
-1.8749e-09
-1.89755e-09
-1.91784e-09
-1.9404e-09
-1.96152e-09
-1.98476e-09
-2.00835e-09
-2.0299e-09
-2.05083e-09
-2.07302e-09
-2.09321e-09
-2.11674e-09
-2.1384e-09
-2.16112e-09
-2.18308e-09
-2.20475e-09
-2.22741e-09
-2.24887e-09
-2.27262e-09
-2.29408e-09
-2.31506e-09
-2.33863e-09
-2.35879e-09
-2.38086e-09
-2.40301e-09
-2.4239e-09
-2.44924e-09
-2.47032e-09
-2.49516e-09
-2.517e-09
-2.54086e-09
-2.56645e-09
-2.59463e-09
-2.62477e-09
-2.65607e-09
-2.68964e-09
-2.72118e-09
-2.75947e-09
-2.80123e-09
-2.85481e-09
-2.92317e-09
-3.00717e-09
-3.10874e-09
-3.2302e-09
-3.38168e-09
-3.56631e-09
-3.58771e-09
-7.76111e-10
-4.54864e-09
-4.92736e-09
-9.8102e-10
5.67188e-09
-8.5951e-10
-1.05346e-09
-1.07182e-09
-1.09871e-09
-1.13321e-09
-1.16998e-09
-1.21123e-09
-1.25412e-09
-1.29707e-09
-1.34074e-09
-1.38156e-09
-1.41629e-09
-1.44714e-09
-1.47369e-09
-1.49855e-09
-1.52073e-09
-1.54808e-09
-1.56604e-09
-1.58876e-09
-1.61216e-09
-1.63396e-09
-1.65492e-09
-1.67863e-09
-1.70344e-09
-1.72463e-09
-1.74713e-09
-1.76749e-09
-1.78793e-09
-1.81045e-09
-1.83283e-09
-1.85755e-09
-1.8774e-09
-1.90192e-09
-1.92109e-09
-1.94354e-09
-1.96355e-09
-1.9865e-09
-2.00862e-09
-2.03035e-09
-2.05139e-09
-2.07432e-09
-2.09615e-09
-2.11916e-09
-2.14147e-09
-2.16387e-09
-2.18548e-09
-2.20727e-09
-2.23185e-09
-2.25183e-09
-2.27358e-09
-2.29532e-09
-2.31789e-09
-2.34076e-09
-2.3622e-09
-2.38388e-09
-2.40654e-09
-2.4265e-09
-2.4507e-09
-2.47615e-09
-2.49706e-09
-2.5198e-09
-2.544e-09
-2.56919e-09
-2.59583e-09
-2.62824e-09
-2.65778e-09
-2.69272e-09
-2.72392e-09
-2.7612e-09
-2.80367e-09
-2.85647e-09
-2.92388e-09
-3.00644e-09
-3.10456e-09
-3.22454e-09
-3.37369e-09
-3.55815e-09
-4.03234e-09
-1.07061e-08
-4.7997e-09
-4.89063e-09
-9.43372e-10
-3.14806e-09
-1.25652e-09
-1.07121e-09
-1.07623e-09
-1.10196e-09
-1.13736e-09
-1.17464e-09
-1.21295e-09
-1.25672e-09
-1.29851e-09
-1.33778e-09
-1.377e-09
-1.41202e-09
-1.44504e-09
-1.47064e-09
-1.49753e-09
-1.52023e-09
-1.53896e-09
-1.56365e-09
-1.59027e-09
-1.61217e-09
-1.63466e-09
-1.65595e-09
-1.67787e-09
-1.6995e-09
-1.72167e-09
-1.74222e-09
-1.76691e-09
-1.78841e-09
-1.81061e-09
-1.8342e-09
-1.85312e-09
-1.87685e-09
-1.89876e-09
-1.92019e-09
-1.94001e-09
-1.96525e-09
-1.9873e-09
-2.0095e-09
-2.03055e-09
-2.0516e-09
-2.07479e-09
-2.09781e-09
-2.11848e-09
-2.14165e-09
-2.16351e-09
-2.18508e-09
-2.20734e-09
-2.22912e-09
-2.25106e-09
-2.27417e-09
-2.2967e-09
-2.31599e-09
-2.33854e-09
-2.36194e-09
-2.38282e-09
-2.40441e-09
-2.42638e-09
-2.45107e-09
-2.46944e-09
-2.49818e-09
-2.51721e-09
-2.54429e-09
-2.56879e-09
-2.59502e-09
-2.62662e-09
-2.65781e-09
-2.68956e-09
-2.72454e-09
-2.76318e-09
-2.80453e-09
-2.85846e-09
-2.92361e-09
-3.0042e-09
-3.1011e-09
-3.21612e-09
-3.36966e-09
-3.53826e-09
-3.59378e-09
-2.06962e-09
-4.57051e-09
-2.43645e-09
-1.4057e-09
-1.08809e-09
-1.07637e-09
-1.10901e-09
-1.14629e-09
-1.18711e-09
-1.22664e-09
-1.26835e-09
-1.31035e-09
-1.34846e-09
-1.38666e-09
-1.42175e-09
-1.4537e-09
-1.47821e-09
-1.50447e-09
-1.52834e-09
-1.5528e-09
-1.5732e-09
-1.59893e-09
-1.6221e-09
-1.64018e-09
-1.66405e-09
-1.68626e-09
-1.70906e-09
-1.73039e-09
-1.75403e-09
-1.77564e-09
-1.79447e-09
-1.81831e-09
-1.83897e-09
-1.86359e-09
-1.88499e-09
-1.90729e-09
-1.92835e-09
-1.95131e-09
-1.9734e-09
-1.99592e-09
-2.01481e-09
-2.03606e-09
-2.05941e-09
-2.0836e-09
-2.10415e-09
-2.12667e-09
-2.15023e-09
-2.17476e-09
-2.19393e-09
-2.21525e-09
-2.23813e-09
-2.25831e-09
-2.28211e-09
-2.30184e-09
-2.32413e-09
-2.34901e-09
-2.37013e-09
-2.39154e-09
-2.41371e-09
-2.43773e-09
-2.45795e-09
-2.48008e-09
-2.5034e-09
-2.52736e-09
-2.55234e-09
-2.57761e-09
-2.60442e-09
-2.63139e-09
-2.66137e-09
-2.69931e-09
-2.73273e-09
-2.76825e-09
-2.81027e-09
-2.86193e-09
-2.92393e-09
-3.00202e-09
-3.10116e-09
-3.21306e-09
-3.36464e-09
-3.51364e-09
-3.422e-09
-2.73173e-09
-2.38489e-11
-1.74033e-09
-1.07707e-09
-1.06314e-09
-1.09913e-09
-1.1387e-09
-1.17437e-09
-1.21163e-09
-1.26025e-09
-1.30242e-09
-1.34084e-09
-1.37682e-09
-1.40597e-09
-1.43947e-09
-1.46797e-09
-1.48996e-09
-1.51823e-09
-1.53867e-09
-1.56458e-09
-1.59109e-09
-1.60989e-09
-1.62725e-09
-1.64972e-09
-1.67804e-09
-1.70309e-09
-1.72003e-09
-1.73867e-09
-1.76595e-09
-1.78079e-09
-1.80915e-09
-1.83469e-09
-1.85076e-09
-1.8761e-09
-1.9007e-09
-1.91841e-09
-1.93869e-09
-1.96815e-09
-1.98964e-09
-2.00982e-09
-2.02986e-09
-2.04983e-09
-2.07116e-09
-2.09678e-09
-2.11935e-09
-2.14046e-09
-2.1542e-09
-2.18594e-09
-2.20386e-09
-2.2318e-09
-2.24985e-09
-2.26845e-09
-2.28969e-09
-2.31695e-09
-2.34169e-09
-2.3558e-09
-2.38248e-09
-2.40455e-09
-2.42793e-09
-2.44665e-09
-2.46828e-09
-2.49494e-09
-2.51884e-09
-2.54335e-09
-2.57142e-09
-2.58726e-09
-2.62305e-09
-2.64993e-09
-2.69026e-09
-2.71995e-09
-2.75975e-09
-2.8027e-09
-2.86005e-09
-2.9189e-09
-2.99887e-09
-3.09564e-09
-3.20931e-09
-3.35674e-09
-3.49886e-09
-3.03451e-09
-5.08312e-09
4.30194e-11
-1.15401e-09
-1.08866e-09
-1.10331e-09
-1.12176e-09
-1.15347e-09
-1.18515e-09
-1.22613e-09
-1.26346e-09
-1.30103e-09
-1.33192e-09
-1.37073e-09
-1.40445e-09
-1.43573e-09
-1.46585e-09
-1.49109e-09
-1.51262e-09
-1.5406e-09
-1.56942e-09
-1.58621e-09
-1.60529e-09
-1.63261e-09
-1.65414e-09
-1.67098e-09
-1.70034e-09
-1.72152e-09
-1.7446e-09
-1.75895e-09
-1.78513e-09
-1.81286e-09
-1.82805e-09
-1.85388e-09
-1.87099e-09
-1.89394e-09
-1.92152e-09
-1.94122e-09
-1.96137e-09
-1.9797e-09
-2.00688e-09
-2.02969e-09
-2.04567e-09
-2.07162e-09
-2.09317e-09
-2.11503e-09
-2.14113e-09
-2.15846e-09
-2.1847e-09
-2.19993e-09
-2.22844e-09
-2.24885e-09
-2.26644e-09
-2.29577e-09
-2.31601e-09
-2.33746e-09
-2.35504e-09
-2.38595e-09
-2.40384e-09
-2.41801e-09
-2.44397e-09
-2.47246e-09
-2.49257e-09
-2.51578e-09
-2.53599e-09
-2.56482e-09
-2.58485e-09
-2.61593e-09
-2.64296e-09
-2.66918e-09
-2.70905e-09
-2.73855e-09
-2.77615e-09
-2.82634e-09
-2.87711e-09
-2.94311e-09
-3.01671e-09
-3.10783e-09
-3.2293e-09
-3.36555e-09
-3.47025e-09
-4.92685e-09
-2.19016e-09
-3.02433e-09
-1.08546e-09
-1.08337e-09
-1.10817e-09
-1.13594e-09
-1.1656e-09
-1.19823e-09
-1.23267e-09
-1.26685e-09
-1.30272e-09
-1.34078e-09
-1.3758e-09
-1.40839e-09
-1.44577e-09
-1.4758e-09
-1.49892e-09
-1.52646e-09
-1.54654e-09
-1.57048e-09
-1.59332e-09
-1.61731e-09
-1.63817e-09
-1.66043e-09
-1.68381e-09
-1.70472e-09
-1.72623e-09
-1.74949e-09
-1.7726e-09
-1.7923e-09
-1.81626e-09
-1.83584e-09
-1.85882e-09
-1.87862e-09
-1.90626e-09
-1.92603e-09
-1.94494e-09
-1.9687e-09
-1.98952e-09
-2.01219e-09
-2.03259e-09
-2.05821e-09
-2.07908e-09
-2.09785e-09
-2.12468e-09
-2.14408e-09
-2.16518e-09
-2.19101e-09
-2.21173e-09
-2.23899e-09
-2.25325e-09
-2.27887e-09
-2.30247e-09
-2.32127e-09
-2.34527e-09
-2.37165e-09
-2.38672e-09
-2.41103e-09
-2.43244e-09
-2.45115e-09
-2.4769e-09
-2.50399e-09
-2.52417e-09
-2.543e-09
-2.56986e-09
-2.59903e-09
-2.62095e-09
-2.65013e-09
-2.68247e-09
-2.70802e-09
-2.74028e-09
-2.78049e-09
-2.82494e-09
-2.87835e-09
-2.94497e-09
-3.02034e-09
-3.11907e-09
-3.24403e-09
-3.40069e-09
-3.58216e-09
-1.90944e-09
-3.90286e-09
-1.01089e-09
6.35289e-10
-9.82025e-10
-1.07274e-09
-1.10021e-09
-1.12866e-09
-1.15854e-09
-1.18847e-09
-1.22224e-09
-1.25675e-09
-1.29361e-09
-1.33329e-09
-1.37181e-09
-1.40544e-09
-1.43884e-09
-1.46805e-09
-1.49541e-09
-1.51797e-09
-1.54447e-09
-1.56711e-09
-1.59066e-09
-1.60902e-09
-1.632e-09
-1.65873e-09
-1.68066e-09
-1.70145e-09
-1.72013e-09
-1.74244e-09
-1.76892e-09
-1.79153e-09
-1.81291e-09
-1.82656e-09
-1.8521e-09
-1.87919e-09
-1.90084e-09
-1.92364e-09
-1.93932e-09
-1.96373e-09
-1.985e-09
-2.00495e-09
-2.02899e-09
-2.05253e-09
-2.07068e-09
-2.09483e-09
-2.11895e-09
-2.14141e-09
-2.15962e-09
-2.18954e-09
-2.20925e-09
-2.23116e-09
-2.25304e-09
-2.26922e-09
-2.29862e-09
-2.32196e-09
-2.34078e-09
-2.36076e-09
-2.38534e-09
-2.40359e-09
-2.43e-09
-2.44757e-09
-2.47371e-09
-2.49511e-09
-2.51664e-09
-2.5431e-09
-2.56405e-09
-2.59167e-09
-2.62154e-09
-2.64376e-09
-2.67762e-09
-2.70594e-09
-2.73958e-09
-2.77823e-09
-2.82826e-09
-2.88431e-09
-2.9562e-09
-3.03795e-09
-3.14192e-09
-3.27359e-09
-3.43959e-09
-3.72093e-09
-5.60318e-09
-4.2488e-09
-4.32809e-09
-9.94709e-10
-5.51784e-10
-9.64472e-10
-1.06556e-09
-1.09039e-09
-1.12015e-09
-1.15123e-09
-1.17938e-09
-1.21788e-09
-1.25469e-09
-1.29248e-09
-1.33378e-09
-1.36541e-09
-1.40673e-09
-1.44067e-09
-1.46827e-09
-1.49697e-09
-1.51613e-09
-1.54564e-09
-1.56929e-09
-1.59099e-09
-1.60968e-09
-1.63128e-09
-1.66007e-09
-1.68228e-09
-1.70287e-09
-1.72146e-09
-1.7416e-09
-1.76848e-09
-1.79105e-09
-1.80957e-09
-1.82768e-09
-1.85177e-09
-1.87935e-09
-1.9004e-09
-1.92247e-09
-1.93933e-09
-1.96567e-09
-1.98473e-09
-2.00292e-09
-2.02158e-09
-2.05309e-09
-2.06997e-09
-2.09473e-09
-2.12149e-09
-2.13877e-09
-2.16063e-09
-2.18625e-09
-2.20977e-09
-2.23309e-09
-2.24835e-09
-2.27239e-09
-2.29732e-09
-2.31937e-09
-2.3363e-09
-2.36296e-09
-2.38488e-09
-2.40339e-09
-2.43136e-09
-2.44574e-09
-2.47099e-09
-2.49615e-09
-2.51619e-09
-2.54488e-09
-2.56378e-09
-2.59395e-09
-2.61727e-09
-2.64766e-09
-2.67837e-09
-2.70777e-09
-2.74357e-09
-2.7852e-09
-2.83589e-09
-2.89465e-09
-2.96881e-09
-3.05432e-09
-3.16398e-09
-3.30197e-09
-3.47292e-09
-3.7727e-09
-4.46216e-09
-4.24299e-09
-4.66742e-09
-9.94141e-10
-3.34876e-10
-9.1766e-10
-1.05828e-09
-1.07982e-09
-1.11545e-09
-1.15314e-09
-1.19675e-09
-1.23394e-09
-1.2732e-09
-1.31248e-09
-1.34621e-09
-1.38824e-09
-1.41711e-09
-1.44815e-09
-1.48108e-09
-1.5034e-09
-1.53266e-09
-1.5516e-09
-1.5744e-09
-1.59722e-09
-1.62077e-09
-1.64956e-09
-1.66697e-09
-1.68951e-09
-1.70898e-09
-1.73552e-09
-1.76024e-09
-1.77352e-09
-1.79739e-09
-1.82054e-09
-1.84661e-09
-1.86625e-09
-1.8866e-09
-1.90582e-09
-1.92988e-09
-1.95831e-09
-1.97125e-09
-1.99546e-09
-2.01994e-09
-2.04219e-09
-2.06264e-09
-2.08608e-09
-2.10261e-09
-2.12834e-09
-2.15832e-09
-2.17686e-09
-2.19342e-09
-2.21534e-09
-2.23967e-09
-2.26867e-09
-2.28577e-09
-2.30465e-09
-2.32682e-09
-2.35535e-09
-2.36878e-09
-2.39297e-09
-2.41937e-09
-2.43806e-09
-2.46315e-09
-2.47948e-09
-2.50533e-09
-2.53028e-09
-2.54979e-09
-2.58285e-09
-2.60166e-09
-2.62937e-09
-2.66689e-09
-2.69339e-09
-2.73191e-09
-2.76892e-09
-2.81029e-09
-2.86412e-09
-2.92618e-09
-2.99998e-09
-3.09129e-09
-3.20206e-09
-3.34056e-09
-3.50578e-09
-3.85128e-09
-4.71652e-09
-4.37037e-09
-4.86281e-09
-1.1087e-09
-2.48579e-09
-1.12287e-09
-1.06878e-09
-1.07962e-09
-1.1274e-09
-1.16797e-09
-1.21401e-09
-1.25307e-09
-1.29235e-09
-1.32868e-09
-1.36401e-09
-1.39809e-09
-1.42956e-09
-1.46023e-09
-1.49043e-09
-1.51395e-09
-1.54038e-09
-1.5616e-09
-1.5913e-09
-1.60718e-09
-1.63936e-09
-1.65521e-09
-1.67334e-09
-1.69795e-09
-1.72338e-09
-1.74326e-09
-1.76899e-09
-1.78853e-09
-1.80654e-09
-1.82893e-09
-1.85481e-09
-1.87845e-09
-1.89606e-09
-1.92236e-09
-1.93932e-09
-1.9659e-09
-1.98683e-09
-2.00514e-09
-2.03625e-09
-2.05613e-09
-2.07885e-09
-2.10182e-09
-2.11935e-09
-2.13932e-09
-2.16599e-09
-2.1836e-09
-2.21147e-09
-2.23002e-09
-2.24737e-09
-2.2759e-09
-2.29427e-09
-2.31283e-09
-2.3428e-09
-2.36158e-09
-2.3829e-09
-2.40144e-09
-2.42624e-09
-2.44544e-09
-2.47157e-09
-2.49345e-09
-2.51685e-09
-2.54596e-09
-2.56103e-09
-2.59048e-09
-2.61237e-09
-2.64547e-09
-2.67757e-09
-2.7149e-09
-2.75091e-09
-2.78528e-09
-2.8296e-09
-2.88178e-09
-2.94192e-09
-3.01574e-09
-3.10588e-09
-3.22036e-09
-3.36426e-09
-3.52518e-09
-3.6891e-09
-2.62396e-09
-4.25397e-09
-4.93452e-09
-1.11303e-09
-2.23328e-09
-1.1302e-09
-1.06433e-09
-1.08337e-09
-1.12844e-09
-1.1686e-09
-1.21144e-09
-1.25254e-09
-1.2908e-09
-1.32725e-09
-1.35965e-09
-1.39355e-09
-1.42618e-09
-1.4569e-09
-1.48567e-09
-1.50992e-09
-1.53332e-09
-1.55711e-09
-1.58378e-09
-1.60358e-09
-1.62951e-09
-1.64862e-09
-1.67097e-09
-1.69378e-09
-1.71659e-09
-1.73703e-09
-1.75993e-09
-1.78251e-09
-1.80372e-09
-1.82359e-09
-1.84899e-09
-1.8749e-09
-1.89429e-09
-1.91689e-09
-1.93766e-09
-1.96019e-09
-1.98521e-09
-2.0041e-09
-2.03274e-09
-2.05404e-09
-2.07698e-09
-2.09874e-09
-2.11867e-09
-2.13596e-09
-2.15854e-09
-2.17738e-09
-2.20455e-09
-2.2247e-09
-2.24499e-09
-2.26626e-09
-2.28802e-09
-2.30786e-09
-2.33645e-09
-2.35417e-09
-2.37795e-09
-2.39716e-09
-2.41861e-09
-2.44179e-09
-2.46738e-09
-2.49102e-09
-2.51173e-09
-2.53669e-09
-2.55609e-09
-2.58173e-09
-2.60805e-09
-2.64478e-09
-2.67509e-09
-2.70915e-09
-2.74701e-09
-2.78412e-09
-2.8295e-09
-2.88209e-09
-2.94327e-09
-3.01787e-09
-3.10978e-09
-3.22759e-09
-3.37771e-09
-3.5433e-09
-3.69803e-09
-2.89339e-09
-4.18798e-09
-4.9786e-09
-1.07766e-09
-1.23923e-09
-1.03035e-09
-1.05205e-09
-1.0881e-09
-1.12763e-09
-1.16777e-09
-1.20973e-09
-1.25129e-09
-1.28949e-09
-1.3251e-09
-1.35963e-09
-1.39592e-09
-1.42917e-09
-1.46129e-09
-1.49114e-09
-1.51472e-09
-1.54004e-09
-1.56143e-09
-1.58302e-09
-1.60666e-09
-1.62953e-09
-1.6503e-09
-1.67236e-09
-1.69706e-09
-1.71818e-09
-1.74345e-09
-1.76311e-09
-1.78462e-09
-1.80565e-09
-1.82927e-09
-1.85063e-09
-1.87414e-09
-1.89525e-09
-1.91788e-09
-1.93799e-09
-1.9594e-09
-1.98129e-09
-2.00438e-09
-2.02871e-09
-2.0518e-09
-2.07483e-09
-2.09568e-09
-2.11602e-09
-2.13479e-09
-2.15852e-09
-2.18368e-09
-2.20357e-09
-2.2254e-09
-2.24727e-09
-2.2663e-09
-2.29478e-09
-2.31422e-09
-2.33683e-09
-2.35915e-09
-2.37913e-09
-2.40162e-09
-2.42475e-09
-2.4447e-09
-2.46873e-09
-2.49102e-09
-2.51505e-09
-2.53643e-09
-2.56148e-09
-2.58725e-09
-2.61466e-09
-2.64555e-09
-2.67999e-09
-2.712e-09
-2.74755e-09
-2.78565e-09
-2.82962e-09
-2.88141e-09
-2.94338e-09
-3.01933e-09
-3.11125e-09
-3.22933e-09
-3.37989e-09
-3.56432e-09
-3.81595e-09
-3.95048e-09
-4.53333e-09
-4.98604e-09
-1.06424e-09
-2.87834e-09
-1.13042e-09
-1.0587e-09
-1.08454e-09
-1.12454e-09
-1.16554e-09
-1.20719e-09
-1.24791e-09
-1.28631e-09
-1.32239e-09
-1.35696e-09
-1.39372e-09
-1.42879e-09
-1.46121e-09
-1.48818e-09
-1.5133e-09
-1.53654e-09
-1.55935e-09
-1.58181e-09
-1.60349e-09
-1.62726e-09
-1.64899e-09
-1.67104e-09
-1.69485e-09
-1.71627e-09
-1.73915e-09
-1.75998e-09
-1.78314e-09
-1.80371e-09
-1.82588e-09
-1.84689e-09
-1.87118e-09
-1.8913e-09
-1.91428e-09
-1.93489e-09
-1.95727e-09
-1.97897e-09
-2.0036e-09
-2.02641e-09
-2.04989e-09
-2.07257e-09
-2.09356e-09
-2.11352e-09
-2.13256e-09
-2.15515e-09
-2.17964e-09
-2.20012e-09
-2.22312e-09
-2.24511e-09
-2.26521e-09
-2.29017e-09
-2.31091e-09
-2.33463e-09
-2.35529e-09
-2.37789e-09
-2.39886e-09
-2.4208e-09
-2.44261e-09
-2.46551e-09
-2.48907e-09
-2.51219e-09
-2.53493e-09
-2.55875e-09
-2.58401e-09
-2.61228e-09
-2.64561e-09
-2.67872e-09
-2.71152e-09
-2.74568e-09
-2.78392e-09
-2.82866e-09
-2.88114e-09
-2.94356e-09
-3.0195e-09
-3.11265e-09
-3.23094e-09
-3.38126e-09
-3.57035e-09
-3.75168e-09
-2.27728e-09
-4.51336e-09
-4.98075e-09
-9.51279e-10
-5.25793e-11
-9.67128e-10
-1.04985e-09
-1.08489e-09
-1.12275e-09
-1.16368e-09
-1.20501e-09
-1.24582e-09
-1.28431e-09
-1.32032e-09
-1.35621e-09
-1.39326e-09
-1.42874e-09
-1.46082e-09
-1.48834e-09
-1.51436e-09
-1.53526e-09
-1.55957e-09
-1.5823e-09
-1.603e-09
-1.62718e-09
-1.64793e-09
-1.67073e-09
-1.69331e-09
-1.71587e-09
-1.73765e-09
-1.76031e-09
-1.78114e-09
-1.80352e-09
-1.82463e-09
-1.84659e-09
-1.86888e-09
-1.88972e-09
-1.91081e-09
-1.9339e-09
-1.95666e-09
-1.97815e-09
-2.00273e-09
-2.02572e-09
-2.04851e-09
-2.07148e-09
-2.09283e-09
-2.11226e-09
-2.13219e-09
-2.15344e-09
-2.17707e-09
-2.19856e-09
-2.2208e-09
-2.24291e-09
-2.2648e-09
-2.28835e-09
-2.31028e-09
-2.33265e-09
-2.35376e-09
-2.37618e-09
-2.39787e-09
-2.42063e-09
-2.44136e-09
-2.46532e-09
-2.48783e-09
-2.51117e-09
-2.53508e-09
-2.55799e-09
-2.58458e-09
-2.61142e-09
-2.64524e-09
-2.67757e-09
-2.71082e-09
-2.74541e-09
-2.78312e-09
-2.82793e-09
-2.88087e-09
-2.94384e-09
-3.0198e-09
-3.11395e-09
-3.23296e-09
-3.38393e-09
-3.57947e-09
-3.9085e-09
-5.36545e-09
-4.67766e-09
-4.99209e-09
-1.00347e-09
-1.52566e-09
-1.03476e-09
-1.05176e-09
-1.08477e-09
-1.12199e-09
-1.16278e-09
-1.20427e-09
-1.2448e-09
-1.28338e-09
-1.31931e-09
-1.35543e-09
-1.39304e-09
-1.42829e-09
-1.46004e-09
-1.48826e-09
-1.51454e-09
-1.53496e-09
-1.55845e-09
-1.582e-09
-1.60303e-09
-1.62646e-09
-1.64759e-09
-1.67058e-09
-1.69259e-09
-1.71524e-09
-1.7362e-09
-1.75924e-09
-1.78053e-09
-1.80269e-09
-1.82374e-09
-1.84526e-09
-1.86797e-09
-1.88889e-09
-1.91011e-09
-1.93351e-09
-1.95681e-09
-1.97799e-09
-2.00229e-09
-2.02552e-09
-2.04833e-09
-2.07095e-09
-2.09279e-09
-2.11209e-09
-2.13206e-09
-2.15336e-09
-2.17567e-09
-2.1969e-09
-2.21999e-09
-2.24221e-09
-2.26388e-09
-2.28684e-09
-2.30945e-09
-2.3318e-09
-2.35357e-09
-2.37563e-09
-2.39745e-09
-2.42033e-09
-2.44141e-09
-2.46451e-09
-2.48767e-09
-2.51076e-09
-2.53432e-09
-2.55822e-09
-2.58423e-09
-2.6112e-09
-2.64467e-09
-2.67724e-09
-2.71072e-09
-2.74514e-09
-2.78269e-09
-2.82772e-09
-2.88063e-09
-2.94384e-09
-3.0204e-09
-3.11516e-09
-3.23449e-09
-3.38606e-09
-3.58145e-09
-3.82751e-09
-3.49688e-09
-4.60081e-09
-5.00106e-09
-9.95169e-10
-1.69492e-09
-1.03839e-09
-1.05223e-09
-1.08489e-09
-1.12208e-09
-1.16264e-09
-1.20417e-09
-1.24478e-09
-1.28335e-09
-1.31933e-09
-1.35553e-09
-1.39305e-09
-1.42844e-09
-1.4603e-09
-1.48822e-09
-1.51374e-09
-1.53495e-09
-1.55821e-09
-1.58196e-09
-1.6034e-09
-1.62634e-09
-1.64765e-09
-1.67058e-09
-1.69312e-09
-1.71507e-09
-1.73603e-09
-1.75907e-09
-1.78065e-09
-1.80286e-09
-1.82415e-09
-1.84579e-09
-1.86798e-09
-1.88953e-09
-1.91061e-09
-1.93229e-09
-1.95733e-09
-1.97755e-09
-2.00231e-09
-2.0253e-09
-2.04831e-09
-2.06961e-09
-2.09209e-09
-2.112e-09
-2.13166e-09
-2.15371e-09
-2.17501e-09
-2.1967e-09
-2.2202e-09
-2.24225e-09
-2.26455e-09
-2.28661e-09
-2.30956e-09
-2.33167e-09
-2.35387e-09
-2.37551e-09
-2.39717e-09
-2.4192e-09
-2.44155e-09
-2.46455e-09
-2.48765e-09
-2.51101e-09
-2.53467e-09
-2.55852e-09
-2.58437e-09
-2.6115e-09
-2.64425e-09
-2.67741e-09
-2.71107e-09
-2.7454e-09
-2.78316e-09
-2.82795e-09
-2.88111e-09
-2.94437e-09
-3.02108e-09
-3.11604e-09
-3.23524e-09
-3.38694e-09
-3.58255e-09
-3.83309e-09
-3.65979e-09
-4.59695e-09
-5.00204e-09
-9.16024e-10
1.70851e-10
-9.53945e-10
-1.05134e-09
-1.08529e-09
-1.1229e-09
-1.16389e-09
-1.20496e-09
-1.24547e-09
-1.28412e-09
-1.32071e-09
-1.35635e-09
-1.39361e-09
-1.42897e-09
-1.46097e-09
-1.48877e-09
-1.51291e-09
-1.53492e-09
-1.55871e-09
-1.58184e-09
-1.60396e-09
-1.6264e-09
-1.64825e-09
-1.67044e-09
-1.69286e-09
-1.71535e-09
-1.73687e-09
-1.75928e-09
-1.78062e-09
-1.80311e-09
-1.82453e-09
-1.84656e-09
-1.86936e-09
-1.89006e-09
-1.91073e-09
-1.93145e-09
-1.95716e-09
-1.9781e-09
-2.00155e-09
-2.02443e-09
-2.04772e-09
-2.06938e-09
-2.09138e-09
-2.11173e-09
-2.132e-09
-2.15372e-09
-2.17535e-09
-2.19777e-09
-2.22162e-09
-2.24347e-09
-2.26553e-09
-2.28787e-09
-2.30979e-09
-2.3326e-09
-2.35491e-09
-2.37657e-09
-2.39724e-09
-2.41922e-09
-2.44232e-09
-2.46554e-09
-2.4881e-09
-2.51262e-09
-2.53549e-09
-2.55906e-09
-2.58474e-09
-2.6118e-09
-2.64514e-09
-2.67714e-09
-2.7117e-09
-2.74541e-09
-2.78402e-09
-2.82916e-09
-2.88236e-09
-2.94545e-09
-3.02168e-09
-3.11616e-09
-3.23494e-09
-3.38651e-09
-3.58261e-09
-3.90317e-09
-5.18962e-09
-4.64567e-09
-4.99191e-09
-1.07508e-09
-2.88727e-09
-1.11e-09
-1.05578e-09
-1.0859e-09
-1.12419e-09
-1.16582e-09
-1.20711e-09
-1.24761e-09
-1.28624e-09
-1.32214e-09
-1.35776e-09
-1.39415e-09
-1.42932e-09
-1.46086e-09
-1.48843e-09
-1.51292e-09
-1.53486e-09
-1.55835e-09
-1.58209e-09
-1.60406e-09
-1.62594e-09
-1.64878e-09
-1.67103e-09
-1.69336e-09
-1.71534e-09
-1.73683e-09
-1.7594e-09
-1.78076e-09
-1.80332e-09
-1.82448e-09
-1.84743e-09
-1.86973e-09
-1.89168e-09
-1.91324e-09
-1.93279e-09
-1.95771e-09
-1.97791e-09
-2.0007e-09
-2.02461e-09