/*--------------------------------*- C++ -*----------------------------------*\
| =========                 |                                                 |
| \\      /  F ield         | OpenFOAM: The Open Source CFD Toolbox           |
|  \\    /   O peration     | Version:  v1906                                 |
|   \\  /    A nd           | Web:      www.OpenFOAM.com                      |
|    \\/     M anipulation  |                                                 |
\*---------------------------------------------------------------------------*/
FoamFile
{
    version     2.0;
    format      ascii;
    class       volScalarField;
    location    "54.5";
    object      p;
}
// * * * * * * * * * * * * * * * * * * * * * * * * * * * * * * * * * * * * * //

dimensions      [0 2 -2 0 0 0 0];


internalField   nonuniform List<scalar> 
243374
(
-1.33172e-16
-3.91188e-11
-5.88652e-11
-8.18401e-11
-1.04485e-10
-1.26815e-10
-1.48995e-10
-1.71063e-10
-1.93087e-10
-2.15067e-10
-2.37026e-10
-2.58987e-10
-2.80942e-10
-3.02888e-10
-3.24837e-10
-3.46781e-10
-3.68738e-10
-3.90693e-10
-4.1264e-10
-4.34603e-10
-4.56568e-10
-4.7851e-10
-5.00462e-10
-5.22431e-10
-5.4438e-10
-5.66339e-10
-5.88298e-10
-6.10248e-10
-6.32207e-10
-6.54168e-10
-6.76126e-10
-6.98079e-10
-7.20038e-10
-7.41997e-10
-7.63956e-10
-7.85914e-10
-8.07862e-10
-8.29827e-10
-8.51788e-10
-8.73738e-10
-8.95694e-10
-9.1766e-10
-9.39609e-10
-9.61569e-10
-9.83525e-10
-1.00548e-09
-1.02744e-09
-1.0494e-09
-1.07136e-09
-1.09332e-09
-1.11529e-09
-1.13725e-09
-1.15922e-09
-1.18119e-09
-1.20317e-09
-1.22515e-09
-1.24716e-09
-1.26918e-09
-1.29122e-09
-1.31331e-09
-1.33546e-09
-1.35769e-09
-1.38003e-09
-1.40254e-09
-1.42529e-09
-1.44838e-09
-1.47194e-09
-1.4962e-09
-1.52141e-09
-1.54798e-09
-1.57654e-09
-1.60768e-09
-1.64265e-09
-1.68285e-09
-1.72997e-09
-1.78701e-09
-1.85714e-09
-1.94424e-09
-2.04666e-09
-2.20766e-09
-1.25435e-11
-3.99481e-11
-5.92356e-11
-8.20087e-11
-1.04577e-10
-1.26878e-10
-1.49039e-10
-1.71099e-10
-1.93099e-10
-2.15082e-10
-2.37045e-10
-2.58997e-10
-2.80941e-10
-3.02891e-10
-3.24841e-10
-3.46796e-10
-3.6875e-10
-3.90696e-10
-4.12659e-10
-4.34606e-10
-4.56559e-10
-4.78533e-10
-5.00483e-10
-5.22423e-10
-5.44391e-10
-5.66347e-10
-5.88301e-10
-6.10261e-10
-6.32216e-10
-6.54171e-10
-6.7613e-10
-6.98091e-10
-7.20044e-10
-7.42001e-10
-7.63964e-10
-7.85917e-10
-8.07879e-10
-8.29831e-10
-8.51789e-10
-8.73749e-10
-8.95705e-10
-9.17661e-10
-9.39619e-10
-9.61581e-10
-9.83527e-10
-1.00549e-09
-1.02745e-09
-1.0494e-09
-1.07137e-09
-1.09333e-09
-1.11529e-09
-1.13725e-09
-1.15922e-09
-1.18119e-09
-1.20317e-09
-1.22516e-09
-1.24716e-09
-1.26918e-09
-1.29123e-09
-1.31332e-09
-1.33546e-09
-1.35769e-09
-1.38004e-09
-1.40257e-09
-1.42531e-09
-1.44842e-09
-1.47202e-09
-1.4963e-09
-1.52158e-09
-1.54822e-09
-1.57686e-09
-1.60827e-09
-1.64343e-09
-1.68395e-09
-1.73187e-09
-1.7893e-09
-1.86001e-09
-1.94806e-09
-2.05287e-09
-2.19987e-09
-2.95155e-11
-4.01296e-11
-5.94827e-11
-8.21021e-11
-1.04619e-10
-1.26895e-10
-1.49034e-10
-1.71097e-10
-1.93109e-10
-2.15081e-10
-2.37033e-10
-2.58991e-10
-2.80942e-10
-3.02891e-10
-3.24836e-10
-3.46785e-10
-3.68732e-10
-3.90696e-10
-4.1264e-10
-4.34601e-10
-4.56565e-10
-4.78496e-10
-5.0046e-10
-5.22439e-10
-5.44381e-10
-5.66337e-10
-5.88299e-10
-6.10247e-10
-6.32207e-10
-6.54162e-10
-6.76118e-10
-6.98077e-10
-7.20042e-10
-7.42001e-10
-7.63948e-10
-7.8591e-10
-8.07861e-10
-8.29826e-10
-8.51789e-10
-8.73736e-10
-8.95699e-10
-9.17659e-10
-9.39611e-10
-9.61562e-10
-9.83531e-10
-1.00548e-09
-1.02743e-09
-1.04941e-09
-1.07135e-09
-1.09331e-09
-1.11528e-09
-1.13725e-09
-1.15922e-09
-1.18118e-09
-1.20316e-09
-1.22514e-09
-1.24715e-09
-1.26916e-09
-1.29121e-09
-1.31331e-09
-1.33546e-09
-1.35769e-09
-1.38004e-09
-1.40254e-09
-1.42531e-09
-1.44843e-09
-1.47203e-09
-1.49636e-09
-1.52166e-09
-1.54837e-09
-1.57709e-09
-1.60859e-09
-1.64393e-09
-1.68469e-09
-1.73284e-09
-1.79079e-09
-1.86203e-09
-1.95052e-09
-2.05668e-09
-2.18659e-09
1.26444e-10
-2.28972e-11
-3.77387e-11
-5.95022e-11
-8.21572e-11
-1.04657e-10
-1.26915e-10
-1.49085e-10
-1.71112e-10
-1.93108e-10
-2.15086e-10
-2.37055e-10
-2.58996e-10
-2.80947e-10
-3.02885e-10
-3.24842e-10
-3.46788e-10
-3.68754e-10
-3.90689e-10
-4.1266e-10
-4.34616e-10
-4.56558e-10
-4.78535e-10
-5.00478e-10
-5.22412e-10
-5.44385e-10
-5.66343e-10
-5.883e-10
-6.10263e-10
-6.32212e-10
-6.54175e-10
-6.76136e-10
-6.9809e-10
-7.20035e-10
-7.41991e-10
-7.63969e-10
-7.85908e-10
-8.07878e-10
-8.29826e-10
-8.51778e-10
-8.73737e-10
-8.95699e-10
-9.17655e-10
-9.39612e-10
-9.61586e-10
-9.8352e-10
-1.00549e-09
-1.02746e-09
-1.04939e-09
-1.07137e-09
-1.09334e-09
-1.11528e-09
-1.13724e-09
-1.1592e-09
-1.18119e-09
-1.20316e-09
-1.22516e-09
-1.24715e-09
-1.26918e-09
-1.29123e-09
-1.31329e-09
-1.33545e-09
-1.35768e-09
-1.38002e-09
-1.40256e-09
-1.42532e-09
-1.44844e-09
-1.47207e-09
-1.49639e-09
-1.52174e-09
-1.54851e-09
-1.57727e-09
-1.60886e-09
-1.64442e-09
-1.6853e-09
-1.73366e-09
-1.79197e-09
-1.86367e-09
-1.95276e-09
-2.06261e-09
-2.19243e-09
-2.33152e-09
1.16528e-10
-2.80578e-11
-3.84205e-11
-5.95507e-11
-8.21961e-11
-1.04682e-10
-1.26933e-10
-1.49053e-10
-1.71122e-10
-1.93119e-10
-2.1509e-10
-2.37046e-10
-2.58986e-10
-2.80938e-10
-3.02901e-10
-3.24836e-10
-3.46797e-10
-3.68729e-10
-3.90701e-10
-4.1264e-10
-4.34591e-10
-4.56552e-10
-4.78491e-10
-5.00468e-10
-5.22446e-10
-5.44385e-10
-5.66345e-10
-5.88296e-10
-6.10245e-10
-6.32211e-10
-6.54162e-10
-6.76119e-10
-6.98071e-10
-7.2004e-10
-7.42008e-10
-7.63946e-10
-7.85916e-10
-8.07865e-10
-8.29817e-10
-8.51778e-10
-8.73739e-10
-8.95692e-10
-9.1765e-10
-9.39606e-10
-9.61562e-10
-9.83532e-10
-1.00548e-09
-1.02743e-09
-1.04942e-09
-1.07135e-09
-1.0933e-09
-1.11528e-09
-1.13725e-09
-1.15922e-09
-1.18118e-09
-1.20315e-09
-1.22512e-09
-1.24714e-09
-1.26914e-09
-1.29119e-09
-1.31331e-09
-1.33544e-09
-1.35767e-09
-1.38002e-09
-1.40253e-09
-1.42529e-09
-1.44843e-09
-1.47204e-09
-1.4964e-09
-1.52175e-09
-1.54855e-09
-1.57736e-09
-1.60903e-09
-1.6446e-09
-1.68567e-09
-1.7342e-09
-1.79274e-09
-1.86474e-09
-1.9542e-09
-2.06404e-09
-2.19169e-09
-2.35233e-09
-2.60779e-09
1.10793e-10
-2.21669e-11
-3.71132e-11
-5.94764e-11
-8.22185e-11
-1.04678e-10
-1.26944e-10
-1.49098e-10
-1.71119e-10
-1.93118e-10
-2.15088e-10
-2.37048e-10
-2.59003e-10
-2.80945e-10
-3.0288e-10
-3.24849e-10
-3.46776e-10
-3.68752e-10
-3.90684e-10
-4.12651e-10
-4.34617e-10
-4.56568e-10
-4.78536e-10
-5.00473e-10
-5.22407e-10
-5.44385e-10
-5.66337e-10
-5.88297e-10
-6.10258e-10
-6.32207e-10
-6.54168e-10
-6.76132e-10
-6.98099e-10
-7.20041e-10
-7.41982e-10
-7.63956e-10
-7.85903e-10
-8.07863e-10
-8.29821e-10
-8.51779e-10
-8.73729e-10
-8.95696e-10
-9.1765e-10
-9.39613e-10
-9.61567e-10
-9.83523e-10
-1.00548e-09
-1.02745e-09
-1.04938e-09
-1.07136e-09
-1.09333e-09
-1.11529e-09
-1.13723e-09
-1.15919e-09
-1.18117e-09
-1.20316e-09
-1.22515e-09
-1.24714e-09
-1.26916e-09
-1.29121e-09
-1.31327e-09
-1.33543e-09
-1.35765e-09
-1.37999e-09
-1.40252e-09
-1.42529e-09
-1.4484e-09
-1.47203e-09
-1.49637e-09
-1.52173e-09
-1.54853e-09
-1.57736e-09
-1.60905e-09
-1.6447e-09
-1.6858e-09
-1.7344e-09
-1.79308e-09
-1.86523e-09
-1.95495e-09
-2.06641e-09
-2.19959e-09
-2.36175e-09
-2.60914e-09
1.06367e-10
-2.50371e-11
-3.75847e-11
-5.95274e-11
-8.22211e-11
-1.04712e-10
-1.26943e-10
-1.49076e-10
-1.71127e-10
-1.93113e-10
-2.15101e-10
-2.37048e-10
-2.5898e-10
-2.8095e-10
-3.02903e-10
-3.24833e-10
-3.46795e-10
-3.68736e-10
-3.90709e-10
-4.12652e-10
-4.34591e-10
-4.56546e-10
-4.78497e-10
-5.0047e-10
-5.22438e-10
-5.44389e-10
-5.66345e-10
-5.88295e-10
-6.10255e-10
-6.32215e-10
-6.54167e-10
-6.76119e-10
-6.98066e-10
-7.20032e-10
-7.42013e-10
-7.63959e-10
-7.85906e-10
-8.07862e-10
-8.29815e-10
-8.51766e-10
-8.73731e-10
-8.95673e-10
-9.17648e-10
-9.39591e-10
-9.61565e-10
-9.83521e-10
-1.00548e-09
-1.02743e-09
-1.04942e-09
-1.07136e-09
-1.09331e-09
-1.11527e-09
-1.13725e-09
-1.15922e-09
-1.18118e-09
-1.20314e-09
-1.22512e-09
-1.24713e-09
-1.26914e-09
-1.29118e-09
-1.31328e-09
-1.33541e-09
-1.35763e-09
-1.37998e-09
-1.40249e-09
-1.42524e-09
-1.44837e-09
-1.47197e-09
-1.49632e-09
-1.52166e-09
-1.54846e-09
-1.57727e-09
-1.60894e-09
-1.64457e-09
-1.68569e-09
-1.73429e-09
-1.79297e-09
-1.86513e-09
-1.95488e-09
-2.06603e-09
-2.19687e-09
-2.36436e-09
-2.61037e-09
1.0485e-10
-2.49852e-11
-3.75689e-11
-5.95107e-11
-8.22205e-11
-1.0468e-10
-1.26954e-10
-1.49081e-10
-1.71126e-10
-1.93129e-10
-2.1508e-10
-2.37048e-10
-2.59004e-10
-2.80932e-10
-3.02885e-10
-3.24847e-10
-3.46777e-10
-3.6874e-10
-3.90682e-10
-4.12638e-10
-4.34614e-10
-4.56569e-10
-4.78525e-10
-5.00469e-10
-5.22417e-10
-5.44374e-10
-5.66336e-10
-5.883e-10
-6.10247e-10
-6.32202e-10
-6.54166e-10
-6.76128e-10
-6.98093e-10
-7.20047e-10
-7.41975e-10
-7.63954e-10
-7.85904e-10
-8.07865e-10
-8.29825e-10
-8.51785e-10
-8.73731e-10
-8.95696e-10
-9.17646e-10
-9.3961e-10
-9.61565e-10
-9.83518e-10
-1.00549e-09
-1.02745e-09
-1.04938e-09
-1.07135e-09
-1.09332e-09
-1.11528e-09
-1.13722e-09
-1.15919e-09
-1.18116e-09
-1.20315e-09
-1.22513e-09
-1.24711e-09
-1.26914e-09
-1.29118e-09
-1.31325e-09
-1.33539e-09
-1.35761e-09
-1.37995e-09
-1.40246e-09
-1.42521e-09
-1.44831e-09
-1.47191e-09
-1.49622e-09
-1.52155e-09
-1.54831e-09
-1.5771e-09
-1.60871e-09
-1.64429e-09
-1.68531e-09
-1.73381e-09
-1.7924e-09
-1.86443e-09
-1.95403e-09
-2.06487e-09
-2.19558e-09
-2.36389e-09
-2.60978e-09
1.056e-10
-2.23733e-11
-3.71626e-11
-5.94938e-11
-8.22153e-11
-1.04706e-10
-1.26933e-10
-1.49083e-10
-1.71121e-10
-1.93103e-10
-2.151e-10
-2.37046e-10
-2.58984e-10
-2.80955e-10
-3.02892e-10
-3.2484e-10
-3.46786e-10
-3.68746e-10
-3.90712e-10
-4.12659e-10
-4.34594e-10
-4.56549e-10
-4.78507e-10
-5.00471e-10
-5.22426e-10
-5.44389e-10
-5.66348e-10
-5.88292e-10
-6.10262e-10
-6.3222e-10
-6.54169e-10
-6.76121e-10
-6.98075e-10
-7.20027e-10
-7.42017e-10
-7.63951e-10
-7.85907e-10
-8.07864e-10
-8.2982e-10
-8.51762e-10
-8.73734e-10
-8.95691e-10
-9.17647e-10
-9.39603e-10
-9.61565e-10
-9.83527e-10
-1.00547e-09
-1.02744e-09
-1.04941e-09
-1.07137e-09
-1.09331e-09
-1.11527e-09
-1.13724e-09
-1.15921e-09
-1.18117e-09
-1.20313e-09
-1.22512e-09
-1.24712e-09
-1.26912e-09
-1.29116e-09
-1.31325e-09
-1.33537e-09
-1.35759e-09
-1.37991e-09
-1.40241e-09
-1.42515e-09
-1.44824e-09
-1.47182e-09
-1.4961e-09
-1.52139e-09
-1.5481e-09
-1.57682e-09
-1.60835e-09
-1.64381e-09
-1.68469e-09
-1.73301e-09
-1.79137e-09
-1.86311e-09
-1.95238e-09
-2.06355e-09
-2.19641e-09
-2.36078e-09
-2.60716e-09
1.08946e-10
-2.79328e-11
-3.84034e-11
-5.95565e-11
-8.21961e-11
-1.04654e-10
-1.26944e-10
-1.4905e-10
-1.71119e-10
-1.93121e-10
-2.15074e-10
-2.37049e-10
-2.59002e-10
-2.80922e-10
-3.02891e-10
-3.24836e-10
-3.46784e-10
-3.68729e-10
-3.9068e-10
-4.12635e-10
-4.34608e-10
-4.56559e-10
-4.78517e-10
-5.00468e-10
-5.22426e-10
-5.44379e-10
-5.66329e-10
-5.88298e-10
-6.10244e-10
-6.32198e-10
-6.54163e-10
-6.76122e-10
-6.98081e-10
-7.20048e-10
-7.41977e-10
-7.63947e-10
-7.85921e-10
-8.07864e-10
-8.29825e-10
-8.51782e-10
-8.73732e-10
-8.95694e-10
-9.17648e-10
-9.39608e-10
-9.61563e-10
-9.83525e-10
-1.00549e-09
-1.02744e-09
-1.04939e-09
-1.07134e-09
-1.09332e-09
-1.11527e-09
-1.13721e-09
-1.15919e-09
-1.18116e-09
-1.20314e-09
-1.22511e-09
-1.2471e-09
-1.26911e-09
-1.29114e-09
-1.3132e-09
-1.33534e-09
-1.35755e-09
-1.37988e-09
-1.40237e-09
-1.42509e-09
-1.44815e-09
-1.4717e-09
-1.49595e-09
-1.52118e-09
-1.54783e-09
-1.57646e-09
-1.60787e-09
-1.64316e-09
-1.68383e-09
-1.73187e-09
-1.78992e-09
-1.86123e-09
-1.94992e-09
-2.05927e-09
-2.18572e-09
-2.35275e-09
-2.60346e-09
1.20218e-10
-2.30025e-11
-3.77476e-11
-5.94842e-11
-8.21577e-11
-1.04658e-10
-1.26912e-10
-1.49057e-10
-1.71111e-10
-1.93101e-10
-2.15094e-10
-2.3704e-10
-2.58984e-10
-2.80953e-10
-3.02889e-10
-3.24845e-10
-3.46785e-10
-3.68751e-10
-3.90712e-10
-4.12661e-10
-4.34598e-10
-4.56559e-10
-4.78513e-10
-5.00469e-10
-5.22427e-10
-5.44383e-10
-5.66352e-10
-5.88297e-10
-6.10262e-10
-6.32221e-10
-6.54174e-10
-6.76125e-10
-6.98088e-10
-7.20028e-10
-7.42011e-10
-7.63965e-10
-7.859e-10
-8.07873e-10
-8.29834e-10
-8.51779e-10
-8.73743e-10
-8.95695e-10
-9.17665e-10
-9.39608e-10
-9.61576e-10
-9.83523e-10
-1.00548e-09
-1.02744e-09
-1.0494e-09
-1.07137e-09
-1.09331e-09
-1.11528e-09
-1.13725e-09
-1.15919e-09
-1.18116e-09
-1.20313e-09
-1.22511e-09
-1.2471e-09
-1.2691e-09
-1.29114e-09
-1.31322e-09
-1.33533e-09
-1.35753e-09
-1.37984e-09
-1.40231e-09
-1.42501e-09
-1.44806e-09
-1.47158e-09
-1.49577e-09
-1.52099e-09
-1.5475e-09
-1.576e-09
-1.60727e-09
-1.64235e-09
-1.68275e-09
-1.73044e-09
-1.78806e-09
-1.8588e-09
-1.94679e-09
-2.05558e-09
-2.1845e-09
-2.33506e-09
-2.60306e-09
1.46476e-10
-2.95152e-11
-4.01053e-11
-5.94852e-11
-8.20918e-11
-1.04599e-10
-1.26889e-10
-1.49027e-10
-1.71091e-10
-1.931e-10
-2.15067e-10
-2.3704e-10
-2.58991e-10
-2.80922e-10
-3.02886e-10
-3.24834e-10
-3.46781e-10
-3.68731e-10
-3.90679e-10
-4.12636e-10
-4.34602e-10
-4.56554e-10
-4.78507e-10
-5.00471e-10
-5.22423e-10
-5.44383e-10
-5.66331e-10
-5.88294e-10
-6.10248e-10
-6.32199e-10
-6.54157e-10
-6.76119e-10
-6.98077e-10
-7.20046e-10
-7.41984e-10
-7.63942e-10
-7.85916e-10
-8.07868e-10
-8.29816e-10
-8.51788e-10
-8.73739e-10
-8.95693e-10
-9.17651e-10
-9.39607e-10
-9.6156e-10
-9.83523e-10
-1.00548e-09
-1.02743e-09
-1.04939e-09
-1.07134e-09
-1.09331e-09
-1.11526e-09
-1.13721e-09
-1.15919e-09
-1.18115e-09
-1.20313e-09
-1.2251e-09
-1.24708e-09
-1.26909e-09
-1.29111e-09
-1.31318e-09
-1.33529e-09
-1.35749e-09
-1.37978e-09
-1.40224e-09
-1.42493e-09
-1.44794e-09
-1.47141e-09
-1.49556e-09
-1.52057e-09
-1.54712e-09
-1.57548e-09
-1.60655e-09
-1.64137e-09
-1.68143e-09
-1.72867e-09
-1.78582e-09
-1.85578e-09
-1.94289e-09
-2.04764e-09
-2.17607e-09
-2.30772e-09
-1.2469e-11
-3.99359e-11
-5.92261e-11
-8.19955e-11
-1.0457e-10
-1.26868e-10
-1.49019e-10
-1.71086e-10
-1.93095e-10
-2.15076e-10
-2.37033e-10
-2.58984e-10
-2.80947e-10
-3.02886e-10
-3.2484e-10
-3.46793e-10
-3.68745e-10
-3.90703e-10
-4.12656e-10
-4.34606e-10
-4.56559e-10
-4.78518e-10
-5.00468e-10
-5.22431e-10
-5.44383e-10
-5.66349e-10
-5.883e-10
-6.10255e-10
-6.32218e-10
-6.54177e-10
-6.76127e-10
-6.98085e-10
-7.20034e-10
-7.42006e-10
-7.63962e-10
-7.85908e-10
-8.0787e-10
-8.29837e-10
-8.51786e-10
-8.73745e-10
-8.95706e-10
-9.1766e-10
-9.39614e-10
-9.61575e-10
-9.83524e-10
-1.00548e-09
-1.02744e-09
-1.04939e-09
-1.07136e-09
-1.09331e-09
-1.11528e-09
-1.13724e-09
-1.15919e-09
-1.18115e-09
-1.20312e-09
-1.2251e-09
-1.24709e-09
-1.26908e-09
-1.29111e-09
-1.31317e-09
-1.33528e-09
-1.35746e-09
-1.37975e-09
-1.40218e-09
-1.42485e-09
-1.44782e-09
-1.47127e-09
-1.49534e-09
-1.52042e-09
-1.54671e-09
-1.57492e-09
-1.60579e-09
-1.64032e-09
-1.67999e-09
-1.72674e-09
-1.78341e-09
-1.8525e-09
-1.9389e-09
-2.04191e-09
-2.1871e-09
1.27932e-13
-3.91014e-11
-5.88614e-11
-8.18251e-11
-1.04465e-10
-1.26803e-10
-1.48979e-10
-1.71057e-10
-1.93074e-10
-2.15055e-10
-2.37028e-10
-2.58983e-10
-2.80918e-10
-3.02881e-10
-3.24836e-10
-3.46779e-10
-3.68737e-10
-3.90685e-10
-4.12643e-10
-4.34597e-10
-4.56557e-10
-4.78505e-10
-5.00473e-10
-5.22425e-10
-5.44382e-10
-5.66335e-10
-5.88293e-10
-6.10256e-10
-6.32203e-10
-6.54154e-10
-6.76126e-10
-6.98076e-10
-7.2004e-10
-7.4199e-10
-7.63947e-10
-7.85909e-10
-8.07871e-10
-8.2982e-10
-8.51786e-10
-8.73739e-10
-8.95693e-10
-9.17654e-10
-9.39605e-10
-9.61558e-10
-9.8352e-10
-1.00548e-09
-1.02743e-09
-1.04939e-09
-1.07135e-09
-1.09331e-09
-1.11526e-09
-1.13721e-09
-1.15918e-09
-1.18114e-09
-1.20312e-09
-1.22508e-09
-1.24706e-09
-1.26906e-09
-1.29108e-09
-1.31314e-09
-1.33523e-09
-1.3574e-09
-1.37967e-09
-1.40211e-09
-1.42473e-09
-1.44767e-09
-1.47105e-09
-1.49507e-09
-1.51998e-09
-1.54618e-09
-1.5742e-09
-1.60481e-09
-1.63897e-09
-1.67815e-09
-1.7243e-09
-1.77981e-09
-1.84805e-09
-1.93317e-09
-2.03365e-09
-2.19288e-09
-1.58001e-11
-3.13609e-11
-5.67671e-11
-8.09792e-11
-1.04053e-10
-1.26583e-10
-1.48848e-10
-1.70967e-10
-1.93022e-10
-2.15027e-10
-2.37004e-10
-2.58969e-10
-2.80922e-10
-3.02884e-10
-3.2483e-10
-3.46782e-10
-3.68738e-10
-3.90692e-10
-4.12644e-10
-4.34598e-10
-4.5656e-10
-4.78515e-10
-5.00462e-10
-5.22427e-10
-5.4438e-10
-5.66344e-10
-5.88299e-10
-6.10251e-10
-6.32203e-10
-6.5417e-10
-6.76125e-10
-6.98081e-10
-7.20031e-10
-7.41999e-10
-7.63957e-10
-7.85912e-10
-8.07865e-10
-8.29822e-10
-8.51783e-10
-8.73743e-10
-8.95696e-10
-9.17653e-10
-9.39613e-10
-9.61567e-10
-9.83532e-10
-1.00548e-09
-1.02745e-09
-1.04941e-09
-1.07137e-09
-1.09333e-09
-1.11529e-09
-1.13725e-09
-1.15923e-09
-1.18119e-09
-1.20318e-09
-1.22517e-09
-1.24717e-09
-1.26918e-09
-1.29123e-09
-1.31331e-09
-1.33546e-09
-1.35766e-09
-1.37996e-09
-1.40243e-09
-1.42511e-09
-1.44807e-09
-1.47147e-09
-1.49546e-09
-1.52034e-09
-1.54634e-09
-1.57411e-09
-1.60419e-09
-1.63758e-09
-1.67558e-09
-1.71972e-09
-1.7732e-09
-1.83859e-09
-1.9218e-09
-2.02647e-09
-2.15088e-09
1.45105e-10
-2.28458e-11
-3.31244e-11
-5.73985e-11
-8.1249e-11
-1.042e-10
-1.2667e-10
-1.48907e-10
-1.71007e-10
-1.93046e-10
-2.15047e-10
-2.37014e-10
-2.58974e-10
-2.80938e-10
-3.0288e-10
-3.2484e-10
-3.46798e-10
-3.68741e-10
-3.90694e-10
-4.12654e-10
-4.34607e-10
-4.56556e-10
-4.78517e-10
-5.00481e-10
-5.22433e-10
-5.44391e-10
-5.66343e-10
-5.883e-10
-6.10262e-10
-6.32226e-10
-6.5417e-10
-6.76129e-10
-6.98089e-10
-7.20049e-10
-7.42e-10
-7.63949e-10
-7.85912e-10
-8.07881e-10
-8.29831e-10
-8.51784e-10
-8.73749e-10
-8.95706e-10
-9.17658e-10
-9.39613e-10
-9.61572e-10
-9.83538e-10
-1.0055e-09
-1.02745e-09
-1.04941e-09
-1.07137e-09
-1.09334e-09
-1.11529e-09
-1.13726e-09
-1.15923e-09
-1.18121e-09
-1.20318e-09
-1.22517e-09
-1.24717e-09
-1.2692e-09
-1.29125e-09
-1.31332e-09
-1.33546e-09
-1.35767e-09
-1.37999e-09
-1.40248e-09
-1.42517e-09
-1.44819e-09
-1.47162e-09
-1.4957e-09
-1.52066e-09
-1.54694e-09
-1.57479e-09
-1.60518e-09
-1.63903e-09
-1.67763e-09
-1.723e-09
-1.77727e-09
-1.84377e-09
-1.92776e-09
-2.03352e-09
-2.15243e-09
-2.25978e-09
1.3104e-10
-1.23012e-11
-3.38191e-11
-5.78249e-11
-8.1431e-11
-1.0428e-10
-1.26713e-10
-1.48916e-10
-1.71018e-10
-1.93054e-10
-2.15042e-10
-2.37026e-10
-2.58977e-10
-2.80923e-10
-3.02894e-10
-3.24833e-10
-3.46776e-10
-3.6874e-10
-3.90695e-10
-4.12642e-10
-4.34601e-10
-4.56565e-10
-4.78514e-10
-5.00461e-10
-5.22427e-10
-5.44379e-10
-5.66346e-10
-5.88299e-10
-6.10249e-10
-6.322e-10
-6.54172e-10
-6.76129e-10
-6.98074e-10
-7.20035e-10
-7.41997e-10
-7.63964e-10
-7.85918e-10
-8.07851e-10
-8.29825e-10
-8.51789e-10
-8.7374e-10
-8.95688e-10
-9.17658e-10
-9.39616e-10
-9.61571e-10
-9.83526e-10
-1.00548e-09
-1.02745e-09
-1.04941e-09
-1.07137e-09
-1.09332e-09
-1.11529e-09
-1.13725e-09
-1.15922e-09
-1.18119e-09
-1.20317e-09
-1.22517e-09
-1.24717e-09
-1.26918e-09
-1.29122e-09
-1.31331e-09
-1.33547e-09
-1.35768e-09
-1.38e-09
-1.4025e-09
-1.42521e-09
-1.44823e-09
-1.47173e-09
-1.49586e-09
-1.52089e-09
-1.5472e-09
-1.57536e-09
-1.60601e-09
-1.64019e-09
-1.67929e-09
-1.72524e-09
-1.78057e-09
-1.84827e-09
-1.93335e-09
-2.04036e-09
-2.17213e-09
-2.27248e-09
-2.50857e-09
1.47646e-10
-1.33069e-11
-3.47753e-11
-5.82564e-11
-8.16132e-11
-1.04365e-10
-1.26767e-10
-1.48962e-10
-1.7104e-10
-1.93067e-10
-2.15059e-10
-2.37031e-10
-2.58984e-10
-2.8093e-10
-3.0288e-10
-3.24848e-10
-3.46801e-10
-3.6874e-10
-3.90697e-10
-4.12659e-10
-4.34607e-10
-4.56544e-10
-4.78514e-10
-5.0049e-10
-5.22432e-10
-5.44388e-10
-5.66342e-10
-5.88292e-10
-6.10268e-10
-6.32227e-10
-6.54166e-10
-6.76131e-10
-6.98089e-10
-7.20051e-10
-7.41998e-10
-7.63951e-10
-7.85905e-10
-8.07891e-10
-8.29835e-10
-8.51773e-10
-8.7375e-10
-8.95709e-10
-9.17653e-10
-9.39616e-10
-9.61568e-10
-9.83538e-10
-1.00549e-09
-1.02745e-09
-1.0494e-09
-1.07136e-09
-1.09334e-09
-1.11529e-09
-1.13726e-09
-1.15922e-09
-1.1812e-09
-1.20317e-09
-1.22517e-09
-1.24716e-09
-1.2692e-09
-1.29125e-09
-1.31333e-09
-1.33545e-09
-1.35768e-09
-1.38003e-09
-1.40252e-09
-1.42526e-09
-1.44831e-09
-1.47182e-09
-1.49603e-09
-1.52113e-09
-1.54762e-09
-1.57589e-09
-1.60677e-09
-1.64132e-09
-1.68089e-09
-1.72743e-09
-1.78367e-09
-1.85236e-09
-1.93842e-09
-2.04621e-09
-2.17847e-09
-2.22787e-09
-2.53938e-09
1.0633e-10
-9.18184e-12
-3.50522e-11
-5.86316e-11
-8.17994e-11
-1.04459e-10
-1.26819e-10
-1.49003e-10
-1.7106e-10
-1.93091e-10
-2.15074e-10
-2.3704e-10
-2.58985e-10
-2.80943e-10
-3.02896e-10
-3.24837e-10
-3.46778e-10
-3.6874e-10
-3.90701e-10
-4.12648e-10
-4.34602e-10
-4.56576e-10
-4.78515e-10
-5.00462e-10
-5.22437e-10
-5.44383e-10
-5.66345e-10
-5.88301e-10
-6.1025e-10
-6.32208e-10
-6.54175e-10
-6.76127e-10
-6.98086e-10
-7.20036e-10
-7.41996e-10
-7.63962e-10
-7.85927e-10
-8.0786e-10
-8.29831e-10
-8.51794e-10
-8.73745e-10
-8.95692e-10
-9.17666e-10
-9.39616e-10
-9.6157e-10
-9.83533e-10
-1.00549e-09
-1.02744e-09
-1.04941e-09
-1.07137e-09
-1.09332e-09
-1.1153e-09
-1.13725e-09
-1.15922e-09
-1.18119e-09
-1.20318e-09
-1.22516e-09
-1.24716e-09
-1.26918e-09
-1.29123e-09
-1.31331e-09
-1.33547e-09
-1.3577e-09
-1.38003e-09
-1.40255e-09
-1.42528e-09
-1.44835e-09
-1.47192e-09
-1.49613e-09
-1.52132e-09
-1.54782e-09
-1.57636e-09
-1.60741e-09
-1.64221e-09
-1.6822e-09
-1.72923e-09
-1.7858e-09
-1.85567e-09
-1.94288e-09
-2.0525e-09
-2.18901e-09
-2.28048e-09
-2.55571e-09
8.90293e-11
-1.20252e-11
-3.6501e-11
-5.91423e-11
-8.20283e-11
-1.04587e-10
-1.26925e-10
-1.49047e-10
-1.71121e-10
-1.93115e-10
-2.15093e-10
-2.37071e-10
-2.59007e-10
-2.80934e-10
-3.02897e-10
-3.24845e-10
-3.46811e-10
-3.68757e-10
-3.90703e-10
-4.12657e-10
-4.34612e-10
-4.56541e-10
-4.78539e-10
-5.00501e-10
-5.22426e-10
-5.44388e-10
-5.66352e-10
-5.88295e-10
-6.10279e-10
-6.32226e-10
-6.54176e-10
-6.76132e-10
-6.98104e-10
-7.20056e-10
-7.42001e-10
-7.63952e-10
-7.85924e-10
-8.0789e-10
-8.29841e-10
-8.51783e-10
-8.73767e-10
-8.95714e-10
-9.17651e-10
-9.39631e-10
-9.61581e-10
-9.83543e-10
-1.0055e-09
-1.02746e-09
-1.0494e-09
-1.07138e-09
-1.09333e-09
-1.11529e-09
-1.13726e-09
-1.15922e-09
-1.1812e-09
-1.20316e-09
-1.22517e-09
-1.24717e-09
-1.26919e-09
-1.29124e-09
-1.31333e-09
-1.33546e-09
-1.3577e-09
-1.38004e-09
-1.40255e-09
-1.42531e-09
-1.4484e-09
-1.47199e-09
-1.49624e-09
-1.52149e-09
-1.54811e-09
-1.57661e-09
-1.60799e-09
-1.64305e-09
-1.68342e-09
-1.73099e-09
-1.78824e-09
-1.85875e-09
-1.94664e-09
-2.05646e-09
-2.19559e-09
-2.33818e-09
-2.55957e-09
8.05045e-11
-1.56441e-11
-3.76323e-11
-5.94607e-11
-8.21843e-11
-1.04664e-10
-1.26962e-10
-1.49073e-10
-1.71128e-10
-1.9313e-10
-2.15104e-10
-2.37048e-10
-2.59002e-10
-2.80958e-10
-3.02905e-10
-3.24846e-10
-3.46785e-10
-3.68739e-10
-3.90703e-10
-4.12651e-10
-4.34599e-10
-4.56573e-10
-4.78501e-10
-5.00461e-10
-5.22446e-10
-5.44385e-10
-5.6634e-10
-5.88304e-10
-6.10246e-10
-6.32215e-10
-6.54173e-10
-6.76133e-10
-6.98077e-10
-7.20038e-10
-7.42001e-10
-7.6396e-10
-7.85917e-10
-8.07876e-10
-8.29837e-10
-8.51782e-10
-8.73747e-10
-8.95705e-10
-9.17665e-10
-9.39623e-10
-9.61557e-10
-9.83533e-10
-1.00549e-09
-1.02745e-09
-1.04942e-09
-1.07136e-09
-1.09332e-09
-1.11529e-09
-1.13726e-09
-1.15922e-09
-1.18118e-09
-1.20317e-09
-1.22514e-09
-1.24714e-09
-1.26917e-09
-1.29122e-09
-1.31331e-09
-1.33546e-09
-1.35769e-09
-1.38003e-09
-1.40255e-09
-1.4253e-09
-1.44842e-09
-1.472e-09
-1.49631e-09
-1.52159e-09
-1.54828e-09
-1.57693e-09
-1.60838e-09
-1.64367e-09
-1.6843e-09
-1.73223e-09
-1.78998e-09
-1.86106e-09
-1.9494e-09
-2.05897e-09
-2.19742e-09
-2.36115e-09
-2.5649e-09
5.22077e-11
-1.42303e-11
-3.70404e-11
-5.95977e-11
-8.22693e-11
-1.04731e-10
-1.26993e-10
-1.49102e-10
-1.71145e-10
-1.93144e-10
-2.15112e-10
-2.37073e-10
-2.59024e-10
-2.80953e-10
-3.02894e-10
-3.24855e-10
-3.46808e-10
-3.68762e-10
-3.90704e-10
-4.12654e-10
-4.34609e-10
-4.56563e-10
-4.78541e-10
-5.00491e-10
-5.22421e-10
-5.4439e-10
-5.66351e-10
-5.88298e-10
-6.1028e-10
-6.3222e-10
-6.54182e-10
-6.76124e-10
-6.98105e-10
-7.20054e-10
-7.41996e-10
-7.6396e-10
-7.85927e-10
-8.07873e-10
-8.29832e-10
-8.51795e-10
-8.73747e-10
-8.95702e-10
-9.17654e-10
-9.39624e-10
-9.61582e-10
-9.83541e-10
-1.0055e-09
-1.02746e-09
-1.0494e-09
-1.07137e-09
-1.09334e-09
-1.11529e-09
-1.13725e-09
-1.15921e-09
-1.18119e-09
-1.20317e-09
-1.22517e-09
-1.24716e-09
-1.26918e-09
-1.29122e-09
-1.3133e-09
-1.33545e-09
-1.35768e-09
-1.38003e-09
-1.40255e-09
-1.42533e-09
-1.44841e-09
-1.47206e-09
-1.49634e-09
-1.52168e-09
-1.54839e-09
-1.57715e-09
-1.60868e-09
-1.64412e-09
-1.68494e-09
-1.73316e-09
-1.79129e-09
-1.86277e-09
-1.95167e-09
-2.06257e-09
-2.20254e-09
-2.41337e-09
-2.57387e-09
4.99878e-11
-1.69531e-11
-3.78869e-11
-5.97418e-11
-8.23427e-11
-1.04769e-10
-1.27023e-10
-1.49103e-10
-1.71156e-10
-1.93146e-10
-2.15121e-10
-2.37043e-10
-2.59011e-10
-2.80957e-10
-3.02922e-10
-3.24837e-10
-3.46806e-10
-3.68735e-10
-3.907e-10
-4.12657e-10
-4.34605e-10
-4.56557e-10
-4.78505e-10
-5.00467e-10
-5.22447e-10
-5.44391e-10
-5.66333e-10
-5.88307e-10
-6.10249e-10
-6.3222e-10
-6.54175e-10
-6.76135e-10
-6.98073e-10
-7.20044e-10
-7.42013e-10
-7.63945e-10
-7.8592e-10
-8.0787e-10
-8.2983e-10
-8.51788e-10
-8.73744e-10
-8.95699e-10
-9.17657e-10
-9.39623e-10
-9.61574e-10
-9.83535e-10
-1.00548e-09
-1.02744e-09
-1.04942e-09
-1.07136e-09
-1.09331e-09
-1.11528e-09
-1.13726e-09
-1.15922e-09
-1.18119e-09
-1.20316e-09
-1.22513e-09
-1.24713e-09
-1.26916e-09
-1.29121e-09
-1.31331e-09
-1.33544e-09
-1.35767e-09
-1.38002e-09
-1.40253e-09
-1.42529e-09
-1.44842e-09
-1.47201e-09
-1.49636e-09
-1.52168e-09
-1.54847e-09
-1.57724e-09
-1.60886e-09
-1.64438e-09
-1.68534e-09
-1.73372e-09
-1.79213e-09
-1.86389e-09
-1.95306e-09
-2.06365e-09
-2.20269e-09
-2.41577e-09
-2.58039e-09
4.90812e-11
-1.53434e-11
-3.72256e-11
-5.97415e-11
-8.23877e-11
-1.04796e-10
-1.27025e-10
-1.49143e-10
-1.71154e-10
-1.93157e-10
-2.15101e-10
-2.3708e-10
-2.59027e-10
-2.80954e-10
-3.02886e-10
-3.24858e-10
-3.46802e-10
-3.68764e-10
-3.90695e-10
-4.12651e-10
-4.34606e-10
-4.56582e-10
-4.78536e-10
-5.00476e-10
-5.22422e-10
-5.44376e-10
-5.66361e-10
-5.88301e-10
-6.10273e-10
-6.32216e-10
-6.54174e-10
-6.76126e-10
-6.98106e-10
-7.20054e-10
-7.41991e-10
-7.63956e-10
-7.8592e-10
-8.07869e-10
-8.29828e-10
-8.51783e-10
-8.73742e-10
-8.95697e-10
-9.17657e-10
-9.39617e-10
-9.61565e-10
-9.83532e-10
-1.00549e-09
-1.02746e-09
-1.04939e-09
-1.07136e-09
-1.09334e-09
-1.11529e-09
-1.13724e-09
-1.1592e-09
-1.18117e-09
-1.20317e-09
-1.22517e-09
-1.24714e-09
-1.26916e-09
-1.2912e-09
-1.31327e-09
-1.33544e-09
-1.35765e-09
-1.38e-09
-1.40251e-09
-1.42529e-09
-1.44838e-09
-1.47202e-09
-1.49632e-09
-1.52168e-09
-1.54843e-09
-1.57725e-09
-1.60888e-09
-1.64447e-09
-1.68548e-09
-1.73398e-09
-1.79247e-09
-1.86441e-09
-1.95379e-09
-2.06525e-09
-2.20461e-09
-2.41853e-09
-2.5845e-09
4.82068e-11
-1.63843e-11
-3.76114e-11
-5.98019e-11
-8.2397e-11
-1.04817e-10
-1.27043e-10
-1.4911e-10
-1.71162e-10
-1.93158e-10
-2.15126e-10
-2.37057e-10
-2.59014e-10
-2.80962e-10
-3.02922e-10
-3.24834e-10
-3.46815e-10
-3.68734e-10
-3.90708e-10
-4.12664e-10
-4.34604e-10
-4.56546e-10
-4.78507e-10
-5.00483e-10
-5.22446e-10
-5.44402e-10
-5.6633e-10
-5.88308e-10
-6.10261e-10
-6.32223e-10
-6.54181e-10
-6.76132e-10
-6.98074e-10
-7.2004e-10
-7.42014e-10
-7.63948e-10
-7.8593e-10
-8.07862e-10
-8.29825e-10
-8.51781e-10
-8.73743e-10
-8.95689e-10
-9.17653e-10
-9.39616e-10
-9.61575e-10
-9.83529e-10
-1.00548e-09
-1.02744e-09
-1.04943e-09
-1.07137e-09
-1.09331e-09
-1.11528e-09
-1.13726e-09
-1.15922e-09
-1.18119e-09
-1.20315e-09
-1.22511e-09
-1.24712e-09
-1.26915e-09
-1.29119e-09
-1.31329e-09
-1.33541e-09
-1.35763e-09
-1.37997e-09
-1.40248e-09
-1.42524e-09
-1.44835e-09
-1.47194e-09
-1.49628e-09
-1.5216e-09
-1.54836e-09
-1.57716e-09
-1.6088e-09
-1.64433e-09
-1.68537e-09
-1.73385e-09
-1.79238e-09
-1.86429e-09
-1.95368e-09
-2.06492e-09
-2.20439e-09
-2.41867e-09
-2.58591e-09
4.81813e-11
-1.63747e-11
-3.76105e-11
-5.97876e-11
-8.24024e-11
-1.04806e-10
-1.2704e-10
-1.49142e-10
-1.71159e-10
-1.93156e-10
-2.15108e-10
-2.37071e-10
-2.59029e-10
-2.80952e-10
-3.02884e-10
-3.24847e-10
-3.46804e-10
-3.68759e-10
-3.90679e-10
-4.12644e-10
-4.34612e-10
-4.56589e-10
-4.78533e-10
-5.00468e-10
-5.22425e-10
-5.44374e-10
-5.66355e-10
-5.88303e-10
-6.10258e-10
-6.32212e-10
-6.54165e-10
-6.76132e-10
-6.98098e-10
-7.2004e-10
-7.41999e-10
-7.63965e-10
-7.85901e-10
-8.07869e-10
-8.29823e-10
-8.51788e-10
-8.73734e-10
-8.95702e-10
-9.1765e-10
-9.39618e-10
-9.6157e-10
-9.83531e-10
-1.00549e-09
-1.02745e-09
-1.04939e-09
-1.07135e-09
-1.09333e-09
-1.11529e-09
-1.13724e-09
-1.1592e-09
-1.18116e-09
-1.20315e-09
-1.22515e-09
-1.24712e-09
-1.26914e-09
-1.29118e-09
-1.31324e-09
-1.3354e-09
-1.35761e-09
-1.37995e-09
-1.40245e-09
-1.42521e-09
-1.44828e-09
-1.47189e-09
-1.49617e-09
-1.52149e-09
-1.54822e-09
-1.57696e-09
-1.60855e-09
-1.64404e-09
-1.68499e-09
-1.73336e-09
-1.79178e-09
-1.86358e-09
-1.95282e-09
-2.06383e-09
-2.20317e-09
-2.41738e-09
-2.58495e-09
4.90671e-11
-1.54875e-11
-3.72555e-11
-5.97515e-11
-8.23753e-11
-1.04807e-10
-1.27021e-10
-1.49128e-10
-1.71141e-10
-1.93152e-10
-2.15119e-10
-2.37064e-10
-2.59013e-10
-2.80974e-10
-3.02907e-10
-3.24839e-10
-3.46816e-10
-3.68743e-10
-3.90705e-10
-4.12666e-10
-4.34602e-10
-4.56548e-10
-4.78508e-10
-5.00483e-10
-5.22445e-10
-5.44402e-10
-5.66336e-10
-5.88303e-10
-6.10256e-10
-6.32226e-10
-6.5419e-10
-6.76134e-10
-6.9808e-10
-7.20036e-10
-7.41999e-10
-7.63957e-10
-7.85939e-10
-8.07867e-10
-8.29822e-10
-8.51775e-10
-8.73744e-10
-8.957e-10
-9.17653e-10
-9.39615e-10
-9.61571e-10
-9.83532e-10
-1.00548e-09
-1.02744e-09
-1.04942e-09
-1.07138e-09
-1.09331e-09
-1.11528e-09
-1.13726e-09
-1.15921e-09
-1.18119e-09
-1.20314e-09
-1.2251e-09
-1.24713e-09
-1.26913e-09
-1.29117e-09
-1.31326e-09
-1.33537e-09
-1.35759e-09
-1.3799e-09
-1.40241e-09
-1.42514e-09
-1.44822e-09
-1.47178e-09
-1.49605e-09
-1.52132e-09
-1.548e-09
-1.57668e-09
-1.60817e-09
-1.64354e-09
-1.68433e-09
-1.73251e-09
-1.79073e-09
-1.86223e-09
-1.95117e-09
-2.0622e-09
-2.20127e-09
-2.4147e-09
-2.58206e-09
4.99671e-11
-1.68682e-11
-3.78796e-11
-5.97328e-11
-8.23331e-11
-1.04767e-10
-1.2701e-10
-1.49114e-10
-1.71146e-10
-1.93141e-10
-2.15118e-10
-2.37053e-10
-2.59017e-10
-2.80942e-10
-3.02889e-10
-3.24839e-10
-3.468e-10
-3.68752e-10
-3.9068e-10
-4.12641e-10
-4.34608e-10
-4.5658e-10
-4.78527e-10
-5.00471e-10
-5.22422e-10
-5.44377e-10
-5.66349e-10
-5.88307e-10
-6.10264e-10
-6.32209e-10
-6.5415e-10
-6.76134e-10
-6.98085e-10
-7.20059e-10
-7.41996e-10
-7.63959e-10
-7.85913e-10
-8.07871e-10
-8.29821e-10
-8.51793e-10