/*--------------------------------*- C++ -*----------------------------------*\
| =========                 |                                                 |
| \\      /  F ield         | OpenFOAM: The Open Source CFD Toolbox           |
|  \\    /   O peration     | Version:  v1906                                 |
|   \\  /    A nd           | Web:      www.OpenFOAM.com                      |
|    \\/     M anipulation  |                                                 |
\*---------------------------------------------------------------------------*/
FoamFile
{
    version     2.0;
    format      ascii;
    class       volScalarField;
    location    "63.5";
    object      p;
}
// * * * * * * * * * * * * * * * * * * * * * * * * * * * * * * * * * * * * * //

dimensions      [0 2 -2 0 0 0 0];


internalField   nonuniform List<scalar> 
243374
(
-1.10591e-16
-3.87686e-11
-5.8524e-11
-8.14853e-11
-1.04117e-10
-1.26436e-10
-1.48602e-10
-1.70657e-10
-1.92668e-10
-2.14634e-10
-2.36579e-10
-2.58526e-10
-2.80465e-10
-3.02398e-10
-3.24332e-10
-3.46263e-10
-3.68203e-10
-3.90144e-10
-4.12076e-10
-4.34024e-10
-4.55973e-10
-4.77902e-10
-4.9984e-10
-5.21793e-10
-5.43728e-10
-5.65672e-10
-5.87617e-10
-6.09552e-10
-6.31497e-10
-6.53443e-10
-6.75386e-10
-6.97325e-10
-7.1927e-10
-7.41214e-10
-7.63159e-10
-7.85103e-10
-8.07039e-10
-8.28988e-10
-8.50935e-10
-8.72872e-10
-8.94815e-10
-9.16767e-10
-9.38704e-10
-9.60651e-10
-9.82595e-10
-1.00454e-09
-1.02649e-09
-1.04844e-09
-1.07039e-09
-1.09234e-09
-1.11431e-09
-1.13626e-09
-1.15823e-09
-1.18021e-09
-1.2022e-09
-1.2242e-09
-1.24623e-09
-1.26828e-09
-1.29038e-09
-1.31254e-09
-1.33478e-09
-1.35713e-09
-1.37965e-09
-1.40239e-09
-1.42544e-09
-1.44893e-09
-1.47304e-09
-1.49802e-09
-1.5242e-09
-1.55213e-09
-1.58241e-09
-1.61599e-09
-1.65414e-09
-1.69861e-09
-1.75165e-09
-1.8163e-09
-1.89632e-09
-1.99647e-09
-2.11517e-09
-2.29959e-09
-1.21762e-11
-3.96477e-11
-5.88948e-11
-8.16528e-11
-1.04209e-10
-1.26499e-10
-1.48646e-10
-1.70692e-10
-1.9268e-10
-2.14648e-10
-2.36596e-10
-2.58534e-10
-2.80465e-10
-3.024e-10
-3.24336e-10
-3.46275e-10
-3.68215e-10
-3.90147e-10
-4.12093e-10
-4.34027e-10
-4.55965e-10
-4.77922e-10
-4.99858e-10
-5.21785e-10
-5.43737e-10
-5.65678e-10
-5.87619e-10
-6.09564e-10
-6.31505e-10
-6.53446e-10
-6.7539e-10
-6.97336e-10
-7.19275e-10
-7.41218e-10
-7.63166e-10
-7.85105e-10
-8.07054e-10
-8.28992e-10
-8.50936e-10
-8.72883e-10
-8.94825e-10
-9.16768e-10
-9.38713e-10
-9.60662e-10
-9.82597e-10
-1.00455e-09
-1.0265e-09
-1.04844e-09
-1.0704e-09
-1.09236e-09
-1.11431e-09
-1.13627e-09
-1.15823e-09
-1.18022e-09
-1.2022e-09
-1.22421e-09
-1.24624e-09
-1.26829e-09
-1.2904e-09
-1.31255e-09
-1.33479e-09
-1.35716e-09
-1.37968e-09
-1.40244e-09
-1.4255e-09
-1.44903e-09
-1.47319e-09
-1.49822e-09
-1.52451e-09
-1.55254e-09
-1.58298e-09
-1.61678e-09
-1.65527e-09
-1.70015e-09
-1.7538e-09
-1.81938e-09
-1.90025e-09
-2.00166e-09
-2.12327e-09
-2.2933e-09
-2.92573e-11
-3.98376e-11
-5.91466e-11
-8.17464e-11
-1.04251e-10
-1.26516e-10
-1.48642e-10
-1.70691e-10
-1.92689e-10
-2.14648e-10
-2.36586e-10
-2.58528e-10
-2.80466e-10
-3.02401e-10
-3.24332e-10
-3.46267e-10
-3.68198e-10
-3.90146e-10
-4.12077e-10
-4.34021e-10
-4.5597e-10
-4.77889e-10
-4.99837e-10
-5.218e-10
-5.43728e-10
-5.6567e-10
-5.87617e-10
-6.09551e-10
-6.31497e-10
-6.53438e-10
-6.7538e-10
-6.97322e-10
-7.19274e-10
-7.41218e-10
-7.63152e-10
-7.851e-10
-8.07037e-10
-8.28988e-10
-8.50936e-10
-8.72871e-10
-8.9482e-10
-9.16766e-10
-9.38706e-10
-9.60645e-10
-9.826e-10
-1.00454e-09
-1.02648e-09
-1.04845e-09
-1.07038e-09
-1.09234e-09
-1.1143e-09
-1.13627e-09
-1.15824e-09
-1.18021e-09
-1.2022e-09
-1.2242e-09
-1.24623e-09
-1.26828e-09
-1.29038e-09
-1.31256e-09
-1.3348e-09
-1.35717e-09
-1.3797e-09
-1.40245e-09
-1.42555e-09
-1.4491e-09
-1.47328e-09
-1.49837e-09
-1.52471e-09
-1.55284e-09
-1.58342e-09
-1.61739e-09
-1.65612e-09
-1.70134e-09
-1.75541e-09
-1.82148e-09
-1.90309e-09
-2.00505e-09
-2.12839e-09
-2.28106e-09
1.25975e-10
-2.32208e-11
-3.7486e-11
-5.91633e-11
-8.1803e-11
-1.0429e-10
-1.26538e-10
-1.48691e-10
-1.70706e-10
-1.9269e-10
-2.14653e-10
-2.36605e-10
-2.58535e-10
-2.8047e-10
-3.02395e-10
-3.24338e-10
-3.46269e-10
-3.68218e-10
-3.90141e-10
-4.12094e-10
-4.34035e-10
-4.55965e-10
-4.77924e-10
-4.99855e-10
-5.21775e-10
-5.43732e-10
-5.65676e-10
-5.87618e-10
-6.09566e-10
-6.31502e-10
-6.53449e-10
-6.75396e-10
-6.97337e-10
-7.19269e-10
-7.41209e-10
-7.63171e-10
-7.85098e-10
-8.07053e-10
-8.28988e-10
-8.50926e-10
-8.72872e-10
-8.9482e-10
-9.16763e-10
-9.38707e-10
-9.60666e-10
-9.82592e-10
-1.00455e-09
-1.0265e-09
-1.04843e-09
-1.0704e-09
-1.09236e-09
-1.1143e-09
-1.13626e-09
-1.15822e-09
-1.18021e-09
-1.2022e-09
-1.22422e-09
-1.24624e-09
-1.2683e-09
-1.29041e-09
-1.31255e-09
-1.33481e-09
-1.35718e-09
-1.37972e-09
-1.4025e-09
-1.4256e-09
-1.44916e-09
-1.47338e-09
-1.4985e-09
-1.52491e-09
-1.55312e-09
-1.5838e-09
-1.61793e-09
-1.65691e-09
-1.70237e-09
-1.75681e-09
-1.82329e-09
-1.90552e-09
-2.00826e-09
-2.13554e-09
-2.28643e-09
-2.44457e-09
1.1576e-10
-2.79449e-11
-3.81101e-11
-5.92134e-11
-8.18423e-11
-1.04316e-10
-1.26557e-10
-1.48664e-10
-1.70715e-10
-1.92699e-10
-2.14657e-10
-2.36597e-10
-2.58525e-10
-2.80464e-10
-3.02409e-10
-3.24331e-10
-3.46276e-10
-3.68196e-10
-3.90151e-10
-4.12078e-10
-4.34014e-10
-4.55959e-10
-4.77885e-10
-4.99844e-10
-5.21805e-10
-5.43732e-10
-5.65676e-10
-5.87615e-10
-6.0955e-10
-6.31501e-10
-6.53438e-10
-6.7538e-10
-6.97317e-10
-7.19272e-10
-7.41225e-10
-7.63151e-10
-7.85106e-10
-8.07041e-10
-8.2898e-10
-8.50927e-10
-8.72874e-10
-8.94814e-10
-9.16759e-10
-9.38702e-10
-9.60645e-10
-9.82603e-10
-1.00454e-09
-1.02648e-09
-1.04845e-09
-1.07038e-09
-1.09233e-09
-1.1143e-09
-1.13627e-09
-1.15825e-09
-1.18021e-09
-1.20219e-09
-1.22419e-09
-1.24623e-09
-1.26828e-09
-1.29039e-09
-1.31257e-09
-1.33482e-09
-1.35719e-09
-1.37973e-09
-1.4025e-09
-1.42561e-09
-1.44921e-09
-1.47343e-09
-1.4986e-09
-1.52504e-09
-1.5533e-09
-1.58407e-09
-1.61834e-09
-1.65738e-09
-1.70314e-09
-1.75785e-09
-1.82463e-09
-1.9073e-09
-2.01056e-09
-2.13811e-09
-2.28782e-09
-2.46841e-09
-2.75243e-09
1.10852e-10
-2.24175e-11
-3.68452e-11
-5.91395e-11
-8.18642e-11
-1.04314e-10
-1.26568e-10
-1.48703e-10
-1.70714e-10
-1.927e-10
-2.14655e-10
-2.366e-10
-2.5854e-10
-2.80468e-10
-3.02391e-10
-3.24342e-10
-3.4626e-10
-3.68216e-10
-3.90137e-10
-4.12086e-10
-4.34036e-10
-4.55972e-10
-4.77925e-10
-4.9985e-10
-5.21772e-10
-5.43731e-10
-5.65671e-10
-5.87616e-10
-6.09562e-10
-6.31498e-10
-6.53443e-10
-6.75393e-10
-6.97343e-10
-7.19273e-10
-7.41201e-10
-7.6316e-10
-7.85094e-10
-8.0704e-10
-8.28984e-10
-8.50928e-10
-8.72865e-10
-8.94818e-10
-9.16759e-10
-9.38709e-10
-9.60651e-10
-9.82595e-10
-1.00454e-09
-1.0265e-09
-1.04842e-09
-1.07039e-09
-1.09236e-09
-1.11431e-09
-1.13625e-09
-1.15822e-09
-1.18021e-09
-1.2022e-09
-1.22422e-09
-1.24623e-09
-1.2683e-09
-1.29041e-09
-1.31256e-09
-1.33482e-09
-1.35719e-09
-1.37973e-09
-1.40252e-09
-1.42564e-09
-1.44923e-09
-1.47348e-09
-1.49865e-09
-1.52513e-09
-1.55342e-09
-1.58425e-09
-1.61858e-09
-1.65779e-09
-1.70363e-09
-1.7585e-09
-1.82549e-09
-1.90843e-09
-2.01208e-09
-2.14134e-09
-2.29683e-09
-2.47924e-09
-2.75632e-09
1.06538e-10
-2.50169e-11
-3.72786e-11
-5.91885e-11
-8.18679e-11
-1.04345e-10
-1.26567e-10
-1.48686e-10
-1.70721e-10
-1.92696e-10
-2.14666e-10
-2.366e-10
-2.58521e-10
-2.80473e-10
-3.0241e-10
-3.2433e-10
-3.46274e-10
-3.68203e-10
-3.90157e-10
-4.12087e-10
-4.34014e-10
-4.55954e-10
-4.77891e-10
-4.99847e-10
-5.21799e-10
-5.43736e-10
-5.65677e-10
-5.87614e-10
-6.09559e-10
-6.31504e-10
-6.53443e-10
-6.7538e-10
-6.97315e-10
-7.19265e-10
-7.4123e-10
-7.63162e-10
-7.85097e-10
-8.07038e-10
-8.28978e-10
-8.50915e-10
-8.72866e-10
-8.94796e-10
-9.16757e-10
-9.38688e-10
-9.60649e-10
-9.82593e-10
-1.00454e-09
-1.02648e-09
-1.04846e-09
-1.0704e-09
-1.09234e-09
-1.1143e-09
-1.13627e-09
-1.15824e-09
-1.18021e-09
-1.20219e-09
-1.2242e-09
-1.24624e-09
-1.26829e-09
-1.29039e-09
-1.31257e-09
-1.33481e-09
-1.35719e-09
-1.37974e-09
-1.40252e-09
-1.42563e-09
-1.44924e-09
-1.47348e-09
-1.49867e-09
-1.52516e-09
-1.55347e-09
-1.58432e-09
-1.61868e-09
-1.65791e-09
-1.70382e-09
-1.75877e-09
-1.82584e-09
-1.90887e-09
-2.01265e-09
-2.14177e-09
-2.29487e-09
-2.4828e-09
-2.75939e-09
1.05111e-10
-2.49592e-11
-3.72598e-11
-5.91709e-11
-8.18666e-11
-1.04316e-10
-1.26576e-10
-1.48689e-10
-1.7072e-10
-1.92708e-10
-2.14649e-10
-2.366e-10
-2.58541e-10
-2.80457e-10
-3.02395e-10
-3.2434e-10
-3.4626e-10
-3.68206e-10
-3.90135e-10
-4.12075e-10
-4.34033e-10
-4.55974e-10
-4.77915e-10
-4.99846e-10
-5.21779e-10
-5.43723e-10
-5.6567e-10
-5.87618e-10
-6.09552e-10
-6.31493e-10
-6.53442e-10
-6.75389e-10
-6.97338e-10
-7.19278e-10
-7.41196e-10
-7.63158e-10
-7.85095e-10
-8.07041e-10
-8.28987e-10
-8.50934e-10
-8.72867e-10
-8.94818e-10
-9.16756e-10
-9.38707e-10
-9.60649e-10
-9.82591e-10
-1.00455e-09
-1.0265e-09
-1.04842e-09
-1.07038e-09
-1.09235e-09
-1.11431e-09
-1.13625e-09
-1.15822e-09
-1.1802e-09
-1.2022e-09
-1.22421e-09
-1.24622e-09
-1.26829e-09
-1.2904e-09
-1.31255e-09
-1.33481e-09
-1.35719e-09
-1.37973e-09
-1.40252e-09
-1.42563e-09
-1.44922e-09
-1.47347e-09
-1.49865e-09
-1.52513e-09
-1.55343e-09
-1.58428e-09
-1.61863e-09
-1.65785e-09
-1.70372e-09
-1.75862e-09
-1.82565e-09
-1.90862e-09
-2.01231e-09
-2.14129e-09
-2.29414e-09
-2.48302e-09
-2.75973e-09
1.05879e-10
-2.25945e-11
-3.68906e-11
-5.91525e-11
-8.18602e-11
-1.04338e-10
-1.26557e-10
-1.4869e-10
-1.70715e-10
-1.92687e-10
-2.14664e-10
-2.36598e-10
-2.58524e-10
-2.80476e-10
-3.02402e-10
-3.24335e-10
-3.46267e-10
-3.6821e-10
-3.9016e-10
-4.12094e-10
-4.34017e-10
-4.55956e-10
-4.779e-10
-4.99847e-10
-5.21789e-10
-5.43736e-10
-5.6568e-10
-5.87612e-10
-6.09565e-10
-6.31509e-10
-6.53445e-10
-6.75383e-10
-6.97322e-10
-7.19261e-10
-7.41232e-10
-7.63156e-10
-7.85097e-10
-8.07041e-10
-8.28983e-10
-8.50912e-10
-8.7287e-10
-8.94813e-10
-9.16756e-10
-9.387e-10
-9.60648e-10
-9.82599e-10
-1.00454e-09
-1.02649e-09
-1.04845e-09
-1.0704e-09
-1.09234e-09
-1.1143e-09
-1.13627e-09
-1.15824e-09
-1.18021e-09
-1.20219e-09
-1.2242e-09
-1.24623e-09
-1.26828e-09
-1.29039e-09
-1.31256e-09
-1.33481e-09
-1.35718e-09
-1.37972e-09
-1.40249e-09
-1.42561e-09
-1.44919e-09
-1.47343e-09
-1.49859e-09
-1.52505e-09
-1.55332e-09
-1.58412e-09
-1.61842e-09
-1.65755e-09
-1.70332e-09
-1.75808e-09
-1.82492e-09
-1.90766e-09
-2.01104e-09
-2.13981e-09
-2.2954e-09
-2.48002e-09
-2.75705e-09
1.09138e-10
-2.77985e-11
-3.80688e-11
-5.92123e-11
-8.18397e-11
-1.04289e-10
-1.26564e-10
-1.48661e-10
-1.70712e-10
-1.927e-10
-2.14643e-10
-2.366e-10
-2.58538e-10
-2.8045e-10
-3.024e-10
-3.24332e-10
-3.46265e-10
-3.68197e-10
-3.90133e-10
-4.12073e-10
-4.34028e-10
-4.55966e-10
-4.77908e-10
-4.99846e-10
-5.21788e-10
-5.43727e-10
-5.65664e-10
-5.87616e-10
-6.0955e-10
-6.3149e-10
-6.53438e-10
-6.75383e-10
-6.97328e-10
-7.19278e-10
-7.41199e-10
-7.63151e-10
-7.8511e-10
-8.07041e-10
-8.28987e-10
-8.50931e-10
-8.72867e-10
-8.94816e-10
-9.16758e-10
-9.38705e-10
-9.60647e-10
-9.82597e-10
-1.00455e-09
-1.02649e-09
-1.04843e-09
-1.07038e-09
-1.09235e-09
-1.1143e-09
-1.13624e-09
-1.15822e-09
-1.1802e-09
-1.2022e-09
-1.2242e-09
-1.24622e-09
-1.26828e-09
-1.29038e-09
-1.31253e-09
-1.33479e-09
-1.35716e-09
-1.3797e-09
-1.40247e-09
-1.42557e-09
-1.44914e-09
-1.47335e-09
-1.49849e-09
-1.5249e-09
-1.55313e-09
-1.58386e-09
-1.61805e-09
-1.65706e-09
-1.70264e-09
-1.75714e-09
-1.8237e-09
-1.90604e-09
-2.00886e-09
-2.13595e-09
-2.28477e-09
-2.47252e-09
-2.75233e-09
1.20231e-10
-2.32572e-11
-3.74677e-11
-5.91376e-11
-8.17998e-11
-1.04291e-10
-1.26533e-10
-1.48665e-10
-1.70704e-10
-1.92683e-10
-2.14658e-10
-2.36592e-10
-2.58524e-10
-2.80475e-10
-3.02399e-10
-3.24338e-10
-3.46267e-10
-3.68214e-10
-3.9016e-10
-4.12095e-10
-4.3402e-10
-4.55965e-10
-4.77905e-10
-4.99846e-10
-5.2179e-10
-5.43732e-10
-5.65683e-10
-5.87616e-10
-6.09565e-10
-6.3151e-10
-6.5345e-10
-6.75386e-10
-6.97333e-10
-7.19262e-10
-7.41227e-10
-7.63167e-10
-7.85092e-10
-8.07049e-10
-8.28996e-10
-8.50928e-10
-8.72878e-10
-8.94818e-10
-9.16772e-10
-9.38705e-10
-9.60659e-10
-9.82596e-10
-1.00454e-09
-1.0265e-09
-1.04844e-09
-1.0704e-09
-1.09234e-09
-1.11431e-09
-1.13628e-09
-1.15823e-09
-1.18021e-09
-1.20219e-09
-1.2242e-09
-1.24623e-09
-1.26828e-09
-1.29038e-09
-1.31255e-09
-1.33479e-09
-1.35715e-09
-1.37967e-09
-1.40244e-09
-1.42552e-09
-1.44907e-09
-1.47326e-09
-1.49836e-09
-1.52474e-09
-1.55287e-09
-1.58348e-09
-1.61755e-09
-1.65636e-09
-1.70169e-09
-1.75583e-09
-1.82197e-09
-1.90376e-09
-2.00591e-09
-2.13231e-09
-2.2826e-09
-2.45408e-09
-2.75097e-09
1.47178e-10
-2.91621e-11
-3.97869e-11
-5.91383e-11
-8.17323e-11
-1.0423e-10
-1.26509e-10
-1.48635e-10
-1.70686e-10
-1.9268e-10
-2.14635e-10
-2.36592e-10
-2.58528e-10
-2.80449e-10
-3.02396e-10
-3.2433e-10
-3.46262e-10
-3.68198e-10
-3.90132e-10
-4.12074e-10
-4.34023e-10
-4.55961e-10
-4.779e-10
-4.99848e-10
-5.21786e-10
-5.43731e-10
-5.65665e-10
-5.87613e-10
-6.09554e-10
-6.31491e-10
-6.53433e-10
-6.75381e-10
-6.97324e-10
-7.19277e-10
-7.41204e-10
-7.63148e-10
-7.85106e-10
-8.07044e-10
-8.28979e-10
-8.50936e-10
-8.72873e-10
-8.94815e-10
-9.1676e-10
-9.38704e-10
-9.60645e-10
-9.82596e-10
-1.00454e-09
-1.02648e-09
-1.04844e-09
-1.07038e-09
-1.09234e-09
-1.11429e-09
-1.13625e-09
-1.15822e-09
-1.1802e-09
-1.20219e-09
-1.22419e-09
-1.24621e-09
-1.26827e-09
-1.29035e-09
-1.31252e-09
-1.33475e-09
-1.35711e-09
-1.37964e-09
-1.40239e-09
-1.42546e-09
-1.44897e-09
-1.47313e-09
-1.49818e-09
-1.52448e-09
-1.55253e-09
-1.58302e-09
-1.6169e-09
-1.65546e-09
-1.70043e-09
-1.75412e-09
-1.81973e-09
-1.9008e-09
-2.00207e-09
-2.12435e-09
-2.27583e-09
-2.42376e-09
-1.19688e-11
-3.96058e-11
-5.88749e-11
-8.16355e-11
-1.042e-10
-1.26487e-10
-1.48627e-10
-1.7068e-10
-1.92675e-10
-2.14642e-10
-2.36586e-10
-2.58523e-10
-2.80469e-10
-3.02395e-10
-3.24335e-10
-3.46272e-10
-3.68209e-10
-3.90153e-10
-4.12091e-10
-4.34027e-10
-4.55966e-10
-4.7791e-10
-4.99845e-10
-5.21792e-10
-5.43731e-10
-5.65681e-10
-5.87618e-10
-6.0956e-10
-6.31507e-10
-6.53451e-10
-6.75388e-10
-6.9733e-10
-7.19267e-10
-7.41223e-10
-7.63165e-10
-7.85099e-10
-8.07046e-10
-8.28997e-10
-8.50934e-10
-8.7288e-10
-8.94827e-10
-9.16768e-10
-9.3871e-10
-9.60658e-10
-9.82597e-10
-1.00454e-09
-1.0265e-09
-1.04844e-09
-1.0704e-09
-1.09234e-09
-1.11431e-09
-1.13627e-09
-1.15822e-09
-1.1802e-09
-1.20219e-09
-1.22419e-09
-1.24622e-09
-1.26826e-09
-1.29036e-09
-1.31251e-09
-1.33475e-09
-1.35709e-09
-1.37961e-09
-1.40234e-09
-1.42539e-09
-1.44888e-09
-1.47301e-09
-1.49799e-09
-1.52423e-09
-1.55215e-09
-1.58249e-09
-1.61616e-09
-1.65443e-09
-1.69903e-09
-1.75224e-09
-1.81725e-09
-1.89751e-09
-1.99823e-09
-2.11838e-09
-2.28691e-09
3.58574e-13
-3.87178e-11
-5.85083e-11
-8.14659e-11
-1.04096e-10
-1.26423e-10
-1.48586e-10
-1.70651e-10
-1.92655e-10
-2.14622e-10
-2.36581e-10
-2.58521e-10
-2.80445e-10
-3.02392e-10
-3.2433e-10
-3.4626e-10
-3.68203e-10
-3.90137e-10
-4.1208e-10
-4.34019e-10
-4.55963e-10
-4.77898e-10
-4.9985e-10
-5.21788e-10
-5.4373e-10
-5.65669e-10
-5.87613e-10
-6.0956e-10
-6.31494e-10
-6.53432e-10
-6.75387e-10
-6.97324e-10
-7.19272e-10
-7.41209e-10
-7.63152e-10
-7.851e-10
-8.07047e-10
-8.28983e-10
-8.50934e-10
-8.72874e-10
-8.94815e-10
-9.16763e-10
-9.38703e-10
-9.60644e-10
-9.82594e-10
-1.00454e-09
-1.02649e-09
-1.04844e-09
-1.07038e-09
-1.09234e-09
-1.11429e-09
-1.13625e-09
-1.15822e-09
-1.18019e-09
-1.20218e-09
-1.22418e-09
-1.24619e-09
-1.26824e-09
-1.29033e-09
-1.31249e-09
-1.33471e-09
-1.35705e-09
-1.37954e-09
-1.40226e-09
-1.42528e-09
-1.44874e-09
-1.47279e-09
-1.49773e-09
-1.52382e-09
-1.55163e-09
-1.58176e-09
-1.61515e-09
-1.65304e-09
-1.69711e-09
-1.74992e-09
-1.81392e-09
-1.89249e-09
-1.99113e-09
-2.10914e-09
-2.29208e-09
-1.56617e-11
-3.10045e-11
-5.64095e-11
-8.06156e-11
-1.03683e-10
-1.26201e-10
-1.48455e-10
-1.70562e-10
-1.92603e-10
-2.14594e-10
-2.36557e-10
-2.58508e-10
-2.80447e-10
-3.02393e-10
-3.24326e-10
-3.46263e-10
-3.68204e-10
-3.90142e-10
-4.12079e-10
-4.3402e-10
-4.55966e-10
-4.77906e-10
-4.9984e-10
-5.21789e-10
-5.43727e-10
-5.65676e-10
-5.87617e-10
-6.09554e-10
-6.31494e-10
-6.53445e-10
-6.75386e-10
-6.97327e-10
-7.19263e-10
-7.41216e-10
-7.6316e-10
-7.85101e-10
-8.07041e-10
-8.28984e-10
-8.50931e-10
-8.72876e-10
-8.94816e-10
-9.16761e-10
-9.38706e-10
-9.60648e-10
-9.82599e-10
-1.00454e-09
-1.02649e-09
-1.04844e-09
-1.07039e-09
-1.09234e-09
-1.1143e-09
-1.13626e-09
-1.15823e-09
-1.1802e-09
-1.20219e-09
-1.22419e-09
-1.24621e-09
-1.26824e-09
-1.29033e-09
-1.31247e-09
-1.33469e-09
-1.35699e-09
-1.37944e-09
-1.40208e-09
-1.42501e-09
-1.4483e-09
-1.47214e-09
-1.4967e-09
-1.52243e-09
-1.54954e-09
-1.57872e-09
-1.61081e-09
-1.64696e-09
-1.68856e-09
-1.73799e-09
-1.79774e-09
-1.87258e-09
-1.9674e-09
-2.08774e-09
-2.23262e-09
1.45199e-10
-2.25014e-11
-3.28013e-11
-5.70511e-11
-8.08886e-11
-1.0383e-10
-1.26288e-10
-1.48513e-10
-1.70602e-10
-1.92627e-10
-2.14613e-10
-2.36567e-10
-2.58512e-10
-2.80461e-10
-3.0239e-10
-3.24334e-10
-3.46277e-10
-3.68207e-10
-3.90144e-10
-4.1209e-10
-4.34028e-10
-4.55962e-10
-4.77908e-10
-4.99856e-10
-5.21794e-10
-5.43738e-10
-5.65675e-10
-5.87617e-10
-6.09565e-10
-6.31513e-10
-6.53444e-10
-6.75389e-10
-6.97334e-10
-7.1928e-10
-7.41217e-10
-7.63153e-10
-7.85101e-10
-8.07055e-10
-8.28992e-10
-8.50931e-10
-8.72882e-10
-8.94826e-10
-9.16764e-10
-9.38707e-10
-9.60652e-10
-9.82605e-10
-1.00455e-09
-1.02649e-09
-1.04844e-09
-1.07039e-09
-1.09236e-09
-1.1143e-09
-1.13627e-09
-1.15823e-09
-1.18021e-09
-1.20219e-09
-1.22419e-09
-1.24621e-09
-1.26827e-09
-1.29036e-09
-1.31249e-09
-1.33471e-09
-1.35702e-09
-1.37949e-09
-1.40217e-09
-1.42513e-09
-1.44849e-09
-1.47239e-09
-1.49709e-09
-1.52292e-09
-1.55024e-09
-1.57972e-09
-1.61219e-09
-1.64885e-09
-1.69129e-09
-1.74174e-09
-1.80306e-09
-1.87915e-09
-1.97508e-09
-2.09686e-09
-2.23634e-09
-2.35799e-09
1.31047e-10
-1.2451e-11
-3.35001e-11
-5.74772e-11
-8.10715e-11
-1.03911e-10
-1.26332e-10
-1.48524e-10
-1.70613e-10
-1.92635e-10
-2.1461e-10
-2.36577e-10
-2.58516e-10
-2.80448e-10
-3.02402e-10
-3.24329e-10
-3.46258e-10
-3.68205e-10
-3.90145e-10
-4.12077e-10
-4.34022e-10
-4.5597e-10
-4.77906e-10
-4.99839e-10
-5.21789e-10
-5.43726e-10
-5.65678e-10
-5.87617e-10
-6.09552e-10
-6.31491e-10
-6.53447e-10
-6.75389e-10
-6.97322e-10
-7.19267e-10
-7.41214e-10
-7.63166e-10
-7.85107e-10
-8.07029e-10
-8.28986e-10
-8.50936e-10
-8.72874e-10
-8.9481e-10
-9.16765e-10
-9.38709e-10
-9.60651e-10
-9.82595e-10
-1.00454e-09
-1.02649e-09
-1.04844e-09
-1.0704e-09
-1.09234e-09
-1.11431e-09
-1.13626e-09
-1.15823e-09
-1.1802e-09
-1.20219e-09
-1.2242e-09
-1.24622e-09
-1.26826e-09
-1.29035e-09
-1.3125e-09
-1.33474e-09
-1.35706e-09
-1.37954e-09
-1.40224e-09
-1.42523e-09
-1.44861e-09
-1.4726e-09
-1.49737e-09
-1.52331e-09
-1.5508e-09
-1.58057e-09
-1.6134e-09
-1.65052e-09
-1.69359e-09
-1.74476e-09
-1.80721e-09
-1.8848e-09
-1.98223e-09
-2.10556e-09
-2.25788e-09
-2.37354e-09
-2.62733e-09
1.46538e-10
-1.30669e-11
-3.44648e-11
-5.79104e-11
-8.12553e-11
-1.03997e-10
-1.26388e-10
-1.48569e-10
-1.70636e-10
-1.92649e-10
-2.14626e-10
-2.36584e-10
-2.58523e-10
-2.80455e-10
-3.02391e-10
-3.24341e-10
-3.4628e-10
-3.68206e-10
-3.90147e-10
-4.12094e-10
-4.34028e-10
-4.55952e-10
-4.77906e-10
-4.99864e-10
-5.21793e-10
-5.43735e-10
-5.65675e-10
-5.87611e-10
-6.09571e-10
-6.31514e-10
-6.53442e-10
-6.75391e-10
-6.97335e-10
-7.19281e-10
-7.41216e-10
-7.63155e-10
-7.85096e-10
-8.07064e-10
-8.28995e-10
-8.50923e-10
-8.72884e-10
-8.94829e-10
-9.1676e-10
-9.38709e-10
-9.60651e-10
-9.82606e-10
-1.00455e-09
-1.0265e-09
-1.04844e-09
-1.07039e-09
-1.09236e-09
-1.1143e-09
-1.13627e-09
-1.15823e-09
-1.18022e-09
-1.20219e-09
-1.2242e-09
-1.24622e-09
-1.26829e-09
-1.29038e-09
-1.31253e-09
-1.33474e-09
-1.35709e-09
-1.37959e-09
-1.4023e-09
-1.42533e-09
-1.44876e-09
-1.47279e-09
-1.49767e-09
-1.52373e-09
-1.55141e-09
-1.58136e-09
-1.61453e-09
-1.65211e-09
-1.69581e-09
-1.74782e-09
-1.81127e-09
-1.89008e-09
-1.98881e-09
-2.11316e-09
-2.26653e-09
-2.33025e-09
-2.6621e-09
1.05287e-10
-9.0315e-12
-3.47009e-11
-5.82856e-11
-8.14422e-11
-1.04091e-10
-1.26439e-10
-1.48609e-10
-1.70656e-10
-1.92671e-10
-2.1464e-10
-2.36591e-10
-2.58523e-10
-2.80466e-10
-3.02405e-10
-3.24332e-10
-3.4626e-10
-3.68206e-10
-3.9015e-10
-4.12083e-10
-4.34023e-10
-4.5598e-10
-4.77907e-10
-4.9984e-10
-5.21798e-10
-5.4373e-10
-5.65677e-10
-5.87619e-10
-6.09553e-10
-6.31498e-10
-6.53449e-10
-6.75387e-10
-6.97331e-10
-7.19269e-10
-7.41214e-10
-7.63164e-10
-7.85114e-10
-8.07037e-10
-8.28991e-10
-8.50941e-10
-8.72878e-10
-8.94814e-10
-9.16772e-10
-9.3871e-10
-9.60652e-10
-9.82601e-10
-1.00455e-09
-1.02649e-09
-1.04845e-09
-1.0704e-09
-1.09234e-09
-1.11431e-09
-1.13626e-09
-1.15824e-09
-1.18021e-09
-1.20221e-09
-1.2242e-09
-1.24622e-09
-1.26828e-09
-1.29038e-09
-1.31253e-09
-1.33478e-09
-1.35713e-09
-1.37963e-09
-1.40237e-09
-1.4254e-09
-1.44887e-09
-1.47297e-09
-1.4979e-09
-1.52404e-09
-1.55188e-09
-1.58206e-09
-1.61552e-09
-1.65348e-09
-1.6977e-09
-1.7504e-09
-1.81468e-09
-1.89437e-09
-1.99463e-09
-2.12129e-09
-2.2788e-09
-2.38637e-09
-2.69108e-09
8.8697e-11
-1.16486e-11
-3.61226e-11
-5.87954e-11
-8.16707e-11
-1.04219e-10
-1.26543e-10
-1.48653e-10
-1.70713e-10
-1.92695e-10
-2.14658e-10
-2.36619e-10
-2.58543e-10
-2.80459e-10
-3.02405e-10
-3.24339e-10
-3.46288e-10
-3.68221e-10
-3.90152e-10
-4.12092e-10
-4.34032e-10
-4.5595e-10
-4.77927e-10
-4.99874e-10
-5.21788e-10
-5.43735e-10
-5.65683e-10
-5.87613e-10
-6.09581e-10
-6.31514e-10
-6.5345e-10
-6.75392e-10
-6.97348e-10
-7.19285e-10
-7.41218e-10
-7.63157e-10
-7.85112e-10
-8.07064e-10
-8.29e-10
-8.50931e-10
-8.72898e-10
-8.94833e-10
-9.16758e-10
-9.38723e-10
-9.60662e-10
-9.8261e-10
-1.00456e-09
-1.02651e-09
-1.04844e-09
-1.0704e-09
-1.09235e-09
-1.11431e-09
-1.13627e-09
-1.15824e-09
-1.18022e-09
-1.2022e-09
-1.22422e-09
-1.24624e-09
-1.2683e-09
-1.2904e-09
-1.31255e-09
-1.33479e-09
-1.35715e-09
-1.37967e-09
-1.40241e-09
-1.42548e-09
-1.44898e-09
-1.47313e-09
-1.49813e-09
-1.52437e-09
-1.55236e-09
-1.5827e-09
-1.61639e-09
-1.6547e-09
-1.6994e-09
-1.75277e-09
-1.81797e-09
-1.89857e-09
-1.99982e-09
-2.12694e-09
-2.28796e-09
-2.44881e-09
-2.69809e-09
8.04304e-11
-1.52939e-11
-3.72894e-11
-5.91183e-11
-8.18261e-11
-1.04296e-10
-1.2658e-10
-1.4868e-10
-1.70722e-10
-1.92709e-10
-2.14669e-10
-2.366e-10
-2.58539e-10
-2.8048e-10
-3.02414e-10
-3.2434e-10
-3.46266e-10
-3.68205e-10
-3.90153e-10
-4.12086e-10
-4.34021e-10
-4.55977e-10
-4.77895e-10
-4.99838e-10
-5.21805e-10
-5.43732e-10
-5.65673e-10
-5.87621e-10
-6.09551e-10
-6.31504e-10
-6.53448e-10
-6.75393e-10
-6.97323e-10
-7.19271e-10
-7.41219e-10
-7.63162e-10
-7.85106e-10
-8.0705e-10
-8.28997e-10
-8.5093e-10
-8.7288e-10
-8.94825e-10
-9.16771e-10
-9.38716e-10
-9.60642e-10
-9.82602e-10
-1.00454e-09
-1.02649e-09
-1.04846e-09
-1.07039e-09
-1.09235e-09
-1.11431e-09
-1.13627e-09
-1.15824e-09
-1.1802e-09
-1.20221e-09
-1.2242e-09
-1.24622e-09
-1.26829e-09
-1.29039e-09
-1.31256e-09
-1.3348e-09
-1.35716e-09
-1.37969e-09
-1.40245e-09
-1.42552e-09
-1.44907e-09
-1.47322e-09
-1.4983e-09
-1.52461e-09
-1.5527e-09
-1.58321e-09
-1.61712e-09
-1.65573e-09
-1.7008e-09
-1.75466e-09
-1.82041e-09
-1.90183e-09
-2.0036e-09
-2.13067e-09
-2.29159e-09
-2.47528e-09
-2.70652e-09
5.23402e-11
-1.38378e-11
-3.67224e-11
-5.92558e-11
-8.19141e-11
-1.04363e-10
-1.26612e-10
-1.48709e-10
-1.70739e-10
-1.92723e-10
-2.14677e-10
-2.36624e-10
-2.58559e-10
-2.80475e-10
-3.02404e-10
-3.24348e-10
-3.46287e-10
-3.68225e-10
-3.90153e-10
-4.1209e-10
-4.3403e-10
-4.55969e-10
-4.77929e-10
-4.99866e-10
-5.21786e-10
-5.43736e-10
-5.65683e-10
-5.87617e-10
-6.09581e-10
-6.31509e-10
-6.53455e-10
-6.75386e-10
-6.97349e-10
-7.19285e-10
-7.41214e-10
-7.63163e-10
-7.85115e-10
-8.07048e-10
-8.28993e-10
-8.50943e-10
-8.7288e-10
-8.94822e-10
-9.16762e-10
-9.38717e-10
-9.60665e-10
-9.8261e-10
-1.00456e-09
-1.0265e-09
-1.04844e-09
-1.0704e-09
-1.09236e-09
-1.11431e-09
-1.13627e-09
-1.15823e-09
-1.18021e-09
-1.20221e-09
-1.22423e-09
-1.24624e-09
-1.26831e-09
-1.2904e-09
-1.31255e-09
-1.33481e-09
-1.35718e-09
-1.37971e-09
-1.40248e-09
-1.42559e-09
-1.44912e-09
-1.47335e-09
-1.49843e-09
-1.52482e-09
-1.55297e-09
-1.58362e-09
-1.6177e-09
-1.65652e-09
-1.7019e-09
-1.75618e-09
-1.8224e-09
-1.90439e-09
-2.00692e-09
-2.13546e-09
-2.29857e-09
-2.53592e-09
-2.71925e-09
5.02181e-11
-1.63284e-11
-3.75412e-11
-5.94033e-11
-8.19883e-11
-1.04402e-10
-1.26642e-10
-1.48712e-10
-1.7075e-10
-1.92726e-10
-2.14685e-10
-2.36597e-10
-2.58547e-10
-2.80481e-10
-3.02427e-10
-3.24333e-10
-3.46282e-10
-3.68202e-10
-3.90151e-10
-4.12092e-10
-4.34026e-10
-4.55964e-10
-4.77897e-10
-4.99844e-10
-5.21806e-10
-5.43737e-10
-5.65667e-10
-5.87624e-10
-6.09554e-10
-6.31508e-10
-6.5345e-10
-6.75395e-10
-6.9732e-10
-7.19275e-10
-7.41229e-10
-7.6315e-10
-7.85108e-10
-8.07046e-10
-8.28991e-10
-8.50936e-10
-8.72878e-10
-8.9482e-10
-9.16765e-10
-9.38717e-10
-9.60656e-10
-9.82605e-10
-1.00454e-09
-1.02649e-09
-1.04846e-09
-1.07039e-09
-1.09234e-09
-1.1143e-09
-1.13628e-09
-1.15824e-09
-1.18022e-09
-1.2022e-09
-1.22419e-09
-1.24622e-09
-1.26829e-09
-1.2904e-09
-1.31258e-09
-1.33482e-09
-1.35719e-09
-1.37973e-09
-1.4025e-09
-1.4256e-09
-1.44918e-09
-1.47338e-09
-1.49854e-09
-1.52494e-09
-1.55319e-09
-1.5839e-09
-1.61812e-09
-1.65711e-09
-1.70271e-09
-1.75727e-09
-1.82386e-09
-1.90626e-09
-2.00921e-09
-2.1376e-09
-2.29983e-09
-2.53993e-09
-2.7291e-09
4.92936e-11
-1.50391e-11
-3.69222e-11
-5.94031e-11
-8.20329e-11
-1.04429e-10
-1.26646e-10
-1.48748e-10
-1.70749e-10
-1.92736e-10
-2.14669e-10
-2.36629e-10
-2.58563e-10
-2.80477e-10
-3.02398e-10
-3.2435e-10
-3.46282e-10
-3.68226e-10
-3.90145e-10
-4.12087e-10
-4.34027e-10
-4.55984e-10
-4.77925e-10
-4.99852e-10
-5.21785e-10
-5.43725e-10
-5.6569e-10
-5.87619e-10
-6.09574e-10
-6.31506e-10
-6.53449e-10
-6.75387e-10
-6.97349e-10
-7.19284e-10
-7.41209e-10
-7.63161e-10
-7.85108e-10
-8.07045e-10
-8.2899e-10
-8.50932e-10
-8.72877e-10
-8.94819e-10
-9.16765e-10
-9.38711e-10
-9.60649e-10
-9.82603e-10
-1.00455e-09
-1.02651e-09
-1.04843e-09
-1.07039e-09
-1.09237e-09
-1.11431e-09
-1.13627e-09
-1.15823e-09
-1.1802e-09
-1.20221e-09
-1.22423e-09
-1.24624e-09
-1.2683e-09
-1.2904e-09
-1.31255e-09
-1.33482e-09
-1.35719e-09
-1.37973e-09
-1.40251e-09
-1.42564e-09
-1.44919e-09
-1.47345e-09
-1.49859e-09
-1.52505e-09
-1.55329e-09
-1.58409e-09
-1.61837e-09
-1.65749e-09
-1.70322e-09
-1.75796e-09
-1.82474e-09
-1.90743e-09
-2.01071e-09
-2.14003e-09
-2.30225e-09
-2.54425e-09
-2.73541e-09
4.84328e-11
-1.59285e-11
-3.728e-11
-5.94628e-11
-8.20436e-11
-1.04449e-10
-1.26662e-10
-1.4872e-10
-1.70756e-10
-1.92737e-10
-2.1469e-10
-2.3661e-10
-2.5855e-10
-2.80486e-10
-3.02427e-10
-3.24331e-10
-3.46291e-10
-3.68202e-10
-3.90157e-10
-4.12097e-10
-4.34024e-10
-4.55954e-10
-4.77899e-10
-4.99857e-10
-5.21806e-10
-5.43747e-10
-5.65665e-10
-5.87625e-10
-6.09564e-10
-6.31511e-10
-6.53456e-10
-6.75392e-10
-6.97322e-10
-7.19273e-10
-7.4123e-10
-7.63153e-10
-7.85118e-10
-8.07038e-10
-8.28987e-10
-8.5093e-10
-8.72878e-10
-8.94811e-10
-9.16761e-10
-9.38711e-10
-9.60659e-10
-9.82601e-10
-1.00455e-09
-1.02649e-09
-1.04846e-09
-1.07041e-09
-1.09234e-09
-1.11431e-09
-1.13628e-09
-1.15824e-09
-1.18022e-09
-1.2022e-09
-1.22419e-09
-1.24623e-09
-1.26829e-09
-1.2904e-09
-1.31258e-09
-1.33481e-09
-1.35719e-09
-1.37973e-09
-1.40251e-09
-1.42562e-09
-1.44921e-09
-1.47344e-09
-1.49862e-09
-1.52507e-09
-1.55335e-09
-1.58416e-09
-1.61848e-09
-1.65761e-09
-1.70342e-09
-1.75822e-09
-1.82511e-09
-1.90787e-09
-2.01125e-09
-2.14045e-09
-2.30321e-09
-2.54541e-09
-2.7383e-09
4.84111e-11
-1.59121e-11
-3.72764e-11
-5.94474e-11
-8.20479e-11
-1.04439e-10
-1.26659e-10
-1.48748e-10
-1.70753e-10
-1.92735e-10
-2.14675e-10
-2.36622e-10
-2.58563e-10
-2.80475e-10
-3.02395e-10
-3.24341e-10
-3.46283e-10
-3.68221e-10
-3.90133e-10
-4.12081e-10
-4.34032e-10
-4.5599e-10
-4.77922e-10
-4.99846e-10
-5.21787e-10
-5.43723e-10
-5.65686e-10
-5.87621e-10
-6.09563e-10
-6.31502e-10
-6.53441e-10
-6.75392e-10
-6.97342e-10
-7.19273e-10
-7.41217e-10
-7.63168e-10
-7.85092e-10
-8.07046e-10
-8.28986e-10
-8.50936e-10
-8.72869e-10
-8.94823e-10
-9.16759e-10
-9.38713e-10
-9.60654e-10
-9.82603e-10
-1.00455e-09
-1.0265e-09
-1.04844e-09
-1.07038e-09
-1.09236e-09
-1.11431e-09
-1.13626e-09
-1.15823e-09
-1.1802e-09
-1.20221e-09
-1.22422e-09
-1.24623e-09
-1.26829e-09
-1.29039e-09
-1.31254e-09
-1.33481e-09
-1.35718e-09
-1.37973e-09
-1.4025e-09
-1.42562e-09
-1.44918e-09
-1.47343e-09
-1.49858e-09
-1.52504e-09
-1.55331e-09
-1.5841e-09
-1.61841e-09
-1.65754e-09
-1.70331e-09
-1.75807e-09
-1.8249e-09
-1.90762e-09
-2.01091e-09
-2.13991e-09
-2.30257e-09
-2.54471e-09
-2.73812e-09
4.92859e-11
-1.51671e-11
-3.69419e-11
-5.94095e-11
-8.20201e-11
-1.04439e-10
-1.26641e-10
-1.48735e-10
-1.70736e-10
-1.92732e-10
-2.14684e-10
-2.36615e-10
-2.5855e-10
-2.80495e-10
-3.02415e-10
-3.24335e-10
-3.46292e-10
-3.68209e-10
-3.90155e-10
-4.121e-10
-4.34024e-10
-4.55956e-10
-4.77901e-10
-4.99858e-10
-5.21805e-10
-5.43747e-10
-5.6567e-10
-5.87621e-10
-6.0956e-10
-6.31514e-10
-6.53463e-10
-6.75394e-10
-6.97327e-10
-7.19269e-10
-7.41218e-10
-7.6316e-10
-7.85126e-10
-8.07043e-10
-8.28986e-10
-8.50924e-10
-8.72879e-10
-8.94821e-10
-9.16762e-10
-9.38711e-10
-9.60656e-10
-9.82604e-10
-1.00454e-09
-1.02649e-09
-1.04846e-09
-1.07041e-09
-1.09234e-09
-1.11431e-09
-1.13628e-09
-1.15824e-09
-1.18023e-09
-1.2022e-09
-1.22419e-09
-1.24624e-09
-1.26829e-09
-1.29039e-09
-1.31257e-09
-1.3348e-09
-1.35717e-09
-1.3797e-09
-1.40248e-09
-1.42558e-09
-1.44916e-09
-1.47338e-09
-1.49852e-09
-1.52495e-09
-1.5532e-09
-1.58395e-09
-1.61819e-09
-1.65722e-09
-1.70289e-09
-1.75748e-09
-1.82415e-09
-1.90662e-09
-2.00965e-09
-2.13855e-09
-2.3007e-09
-2.54218e-09
-2.73532e-09
5.01917e-11
-1.62237e-11
-3.75192e-11
-5.93875e-11
-8.19768e-11
-1.04398e-10
-1.26629e-10
-1.48721e-10
-1.7074e-10
-1.92721e-10
-2.14682e-10
-2.36605e-10
-2.58552e-10
-2.80466e-10
-3.024e-10
-3.24334e-10
-3.46279e-10
-3.68216e-10
-3.90133e-10
-4.12078e-10
-4.34028e-10
-4.55983e-10
-4.77917e-10
-4.99848e-10
-5.21786e-10
-5.43726e-10
-5.65681e-10
-5.87624e-10
-6.09567e-10
-6.315e-10
-6.53428e-10
-6.75393e-10
-6.97332e-10
-7.19288e-10
-7.41214e-10
-7.63162e-10
-7.85102e-10
-8.07047e-10
-8.28984e-10
-8.50941e-10
-8.72876e-10
-8.94823e-10
-9.16766e-10
-9.38715e-10
-9.60641e-10
-9.82596e-10