/*--------------------------------*- C++ -*----------------------------------*\
| =========                 |                                                 |
| \\      /  F ield         | OpenFOAM: The Open Source CFD Toolbox           |
|  \\    /   O peration     | Version:  v1906                                 |
|   \\  /    A nd           | Web:      www.OpenFOAM.com                      |
|    \\/     M anipulation  |                                                 |
\*---------------------------------------------------------------------------*/
FoamFile
{
    version     2.0;
    format      ascii;
    class       volScalarField;
    location    "0.02";
    object      p;
}
// * * * * * * * * * * * * * * * * * * * * * * * * * * * * * * * * * * * * * //

dimensions      [0 2 -2 0 0 0 0];


internalField   nonuniform List<scalar> 
243374
(
1.84486e-14
-1.52856e-09
-1.5246e-10
6.16526e-11
4.49574e-10
3.44619e-10
1.77233e-10
2.52487e-10
2.49794e-10
1.96808e-10
3.46277e-11
1.26736e-10
1.42251e-10
1.45156e-10
1.18452e-10
3.41171e-11
3.05282e-11
-2.96059e-11
-1.52267e-10
-6.0642e-11
-6.03869e-11
-1.32139e-10
-1.48566e-10
-1.14899e-10
-2.78292e-10
-1.34267e-10
-2.07242e-10
-2.6448e-10
-2.76063e-10
-2.61953e-10
-2.06923e-10
-3.88199e-10
-3.33586e-10
-3.7194e-10
-3.7261e-10
-3.97143e-10
-5.92782e-10
-4.23315e-10
-5.7071e-10
-5.55098e-10
-6.58393e-10
-5.12398e-10
-6.74828e-10
-5.79515e-10
-5.88386e-10
-5.25152e-10
-6.81872e-10
-8.18052e-10
-6.66711e-10
-6.12532e-10
-6.63703e-10
-7.58466e-10
-8.10928e-10
-7.31997e-10
-9.79007e-10
-8.34795e-10
-7.66087e-10
-8.8538e-10
-9.0238e-10
-9.85939e-10
-8.95101e-10
-1.05385e-09
-1.00719e-09
-1.04106e-09
-1.11378e-09
-1.15178e-09
-1.09766e-09
-1.30757e-09
-1.33883e-09
-1.37875e-09
-1.52329e-09
-1.69911e-09
-1.78984e-09
-1.89455e-09
-2.01795e-09
-2.18641e-09
-2.27431e-09
-2.22915e-09
-9.42211e-10
-2.80674e-09
-3.55597e-09
-1.0299e-09
-1.80267e-10
5.6901e-11
2.10271e-10
1.33479e-10
1.057e-11
7.26163e-11
8.29391e-12
3.81775e-11
4.6809e-12
-1.10433e-11
2.3934e-12
-4.4574e-11
-9.50494e-12
-8.55772e-11
-1.59817e-10
-1.5832e-10
-1.4394e-10
-1.81581e-10
-1.21271e-10
-2.13411e-10
-2.49285e-10
-2.55973e-10
-2.65053e-10
-2.52783e-10
-3.2411e-10
-3.0739e-10
-3.68332e-10
-3.69581e-10
-4.18806e-10
-3.82167e-10
-3.99146e-10
-4.26221e-10
-4.86573e-10
-4.83974e-10
-5.16787e-10
-5.60255e-10
-5.02003e-10
-5.63698e-10
-5.78546e-10
-5.3276e-10
-6.44461e-10
-6.46638e-10
-6.76709e-10
-6.6634e-10
-7.01443e-10
-7.84678e-10
-7.97174e-10
-8.02958e-10
-7.87403e-10
-8.40869e-10
-8.22433e-10
-9.41264e-10
-9.43133e-10
-9.34008e-10
-9.22727e-10
-9.96171e-10
-1.00023e-09
-1.00215e-09
-1.01478e-09
-1.04125e-09
-1.09896e-09
-1.13409e-09
-1.17466e-09
-1.16207e-09
-1.20783e-09
-1.27068e-09
-1.30471e-09
-1.50902e-09
-1.60842e-09
-1.75276e-09
-1.85872e-09
-1.95257e-09
-2.06784e-09
-2.16451e-09
-2.26131e-09
-2.21418e-09
-1.41384e-09
9.65557e-10
-4.05607e-09
-7.49013e-10
-1.61281e-10
7.29642e-11
1.20373e-10
7.25924e-11
3.83237e-12
2.77727e-11
-2.57237e-12
3.14362e-11
3.27738e-11
7.71106e-11
3.91231e-11
-3.44483e-12
4.15701e-12
-6.90165e-11
-1.08151e-10
-1.24493e-10
-1.28202e-10
-1.50125e-10
-1.12869e-10
-1.90494e-10
-2.20463e-10
-2.35223e-10
-2.32165e-10
-2.37999e-10
-2.94474e-10
-2.82065e-10
-3.38148e-10
-3.49636e-10
-3.47302e-10
-3.55553e-10
-3.77178e-10
-4.14415e-10
-4.6489e-10
-4.48231e-10
-4.66801e-10
-5.21291e-10
-4.72648e-10
-5.08432e-10
-5.28807e-10
-5.1088e-10
-5.85892e-10
-6.23382e-10
-6.56144e-10
-6.54658e-10
-6.60609e-10
-7.35222e-10
-7.72969e-10
-7.80237e-10
-7.74519e-10
-8.14432e-10
-8.12374e-10
-8.91578e-10
-8.91792e-10
-9.11374e-10
-9.1719e-10
-9.63209e-10
-9.59225e-10
-9.71002e-10
-9.89724e-10
-1.01277e-09
-1.06898e-09
-1.11087e-09
-1.13238e-09
-1.1292e-09
-1.17875e-09
-1.22362e-09
-1.2818e-09
-1.51311e-09
-1.63301e-09
-1.76976e-09
-1.87698e-09
-1.96784e-09
-2.07279e-09
-2.15398e-09
-2.24331e-09
-2.23463e-09
-1.6414e-09
1.76257e-09
-2.22168e-09
1.5002e-08
-2.28979e-10
-1.50018e-10
4.12188e-11
6.63914e-11
4.50291e-11
9.23758e-12
1.61169e-11
1.59193e-11
3.87241e-11
1.20876e-10
1.69614e-10
1.27501e-10
8.66262e-11
5.90048e-11
-1.05428e-11
-3.49825e-11
-7.3168e-11
-6.7274e-11
-9.00187e-11
-9.68309e-11
-1.2541e-10
-1.59553e-10
-1.727e-10
-1.71051e-10
-1.86064e-10
-2.0618e-10
-2.22907e-10
-2.79936e-10
-2.89662e-10
-3.08506e-10
-3.06906e-10
-3.50435e-10
-3.58289e-10
-4.0928e-10
-4.17601e-10
-4.35112e-10
-4.79126e-10
-4.53974e-10
-4.72059e-10
-4.92573e-10
-4.90956e-10
-5.47921e-10
-5.93221e-10
-5.97944e-10
-6.03968e-10
-6.33423e-10
-6.73778e-10
-7.00546e-10
-7.23055e-10
-7.26195e-10
-7.56439e-10
-7.62599e-10
-8.10601e-10
-8.26859e-10
-8.51486e-10
-8.65227e-10
-8.96869e-10
-9.22386e-10
-9.18083e-10
-9.45745e-10
-9.63728e-10
-1.01041e-09
-1.05125e-09
-1.0726e-09
-1.07953e-09
-1.12059e-09
-1.16642e-09
-1.24426e-09
-1.49571e-09
-1.63179e-09
-1.77201e-09
-1.88392e-09
-1.97709e-09
-2.07714e-09
-2.15262e-09
-2.21109e-09
-2.26112e-09
-2.09446e-09
-1.66908e-08
-2.11736e-09
-5.23115e-09
-1.62796e-08
-7.37398e-10
-1.6999e-10
-4.16352e-12
3.61122e-11
3.26462e-11
1.32917e-11
1.90855e-11
3.02045e-11
7.6083e-11
2.04214e-10
2.26728e-10
1.93276e-10
1.50873e-10
1.07329e-10
5.15312e-11
1.8264e-11
-1.84474e-11
-2.44636e-11
-4.86931e-11
-4.90513e-11
-7.84396e-11
-1.09112e-10
-1.20239e-10
-1.33759e-10
-1.41316e-10
-1.61989e-10
-1.84747e-10
-2.24462e-10
-2.46918e-10
-2.73249e-10
-2.71429e-10
-3.14305e-10
-3.376e-10
-3.85264e-10
-3.98024e-10
-4.18336e-10
-4.54415e-10
-4.48172e-10
-4.56841e-10
-4.69571e-10
-4.78362e-10
-5.24719e-10
-5.6655e-10
-5.77565e-10
-5.81075e-10
-6.10894e-10
-6.35455e-10
-6.53146e-10
-6.74488e-10
-6.87705e-10
-7.11139e-10
-7.2266e-10
-7.60888e-10
-7.78722e-10
-8.0244e-10
-8.23842e-10
-8.54413e-10
-8.69645e-10
-8.74693e-10
-8.99157e-10
-9.23894e-10
-9.6925e-10
-9.96716e-10
-1.02291e-09
-1.04054e-09
-1.08525e-09
-1.13181e-09
-1.22134e-09
-1.46181e-09
-1.63176e-09
-1.77231e-09
-1.88488e-09
-1.97902e-09
-2.08075e-09
-2.13148e-09
-2.19442e-09
-2.2075e-09
-1.54341e-09
1.97443e-08
-9.17936e-10
3.57612e-09
1.86313e-08
8.93884e-09
-1.52722e-10
-1.67085e-10
-1.94006e-11
1.98212e-11
2.95905e-11
1.71608e-11
2.26652e-11
4.0066e-11
1.09951e-10
2.4047e-10
2.86709e-10
2.35931e-10
1.90898e-10
1.49479e-10
9.96464e-11
5.12437e-11
3.71458e-11
5.11163e-12
-9.79966e-12
-2.54267e-11
-4.54707e-11
-6.37841e-11
-9.05276e-11
-8.95931e-11
-1.16807e-10
-1.17015e-10
-1.60085e-10
-1.82898e-10
-2.18928e-10
-2.42968e-10
-2.49506e-10
-2.9627e-10
-3.27877e-10
-3.71439e-10
-3.87059e-10
-4.11683e-10
-4.45498e-10
-4.51428e-10
-4.49699e-10
-4.51642e-10
-4.67117e-10
-5.09717e-10
-5.4914e-10
-5.6545e-10
-5.70455e-10
-5.9413e-10
-6.01065e-10
-6.2516e-10
-6.45235e-10
-6.55978e-10
-6.7839e-10
-6.96208e-10
-7.26363e-10
-7.4843e-10
-7.7183e-10
-7.87917e-10
-8.24401e-10
-8.2975e-10
-8.47183e-10
-8.65604e-10
-8.97169e-10
-9.33276e-10
-9.56788e-10
-9.91191e-10
-1.01415e-09
-1.06082e-09
-1.11126e-09
-1.21997e-09
-1.43302e-09
-1.62611e-09
-1.77205e-09
-1.88612e-09
-1.97856e-09
-2.04458e-09
-2.12379e-09
-2.18127e-09
-2.1864e-09
-2.20896e-09
-1.59059e-08
-2.48906e-09
7.80078e-09
3.89618e-10
-1.52078e-09
-3.07271e-10
-1.72023e-10
-2.8311e-11
1.87021e-11
2.64587e-11
1.75573e-11
2.47975e-11
4.59591e-11
1.32036e-10
2.58904e-10
3.0919e-10
2.60779e-10
2.1061e-10
1.70226e-10
1.20798e-10
7.82444e-11
5.29944e-11
2.46169e-11
1.2614e-11
-1.09811e-11
-2.96316e-11
-4.4556e-11
-6.78174e-11
-6.83087e-11
-1.06522e-10
-1.00504e-10
-1.40411e-10
-1.68284e-10
-2.02539e-10
-2.21586e-10
-2.39661e-10
-2.88436e-10
-3.24809e-10
-3.65417e-10
-3.82076e-10
-4.10146e-10
-4.44021e-10
-4.56619e-10
-4.41499e-10
-4.30103e-10
-4.51959e-10
-4.97497e-10
-5.36995e-10
-5.59678e-10
-5.65978e-10
-5.85855e-10
-5.86349e-10
-6.0643e-10
-6.2637e-10
-6.43542e-10
-6.63906e-10
-6.78947e-10
-7.06474e-10
-7.27723e-10
-7.58181e-10
-7.74907e-10
-8.05419e-10
-8.09192e-10
-8.30266e-10
-8.51162e-10
-8.81697e-10
-9.15404e-10
-9.38413e-10
-9.70278e-10
-1.00395e-09
-1.04509e-09
-1.10122e-09
-1.21628e-09
-1.42534e-09
-1.61928e-09
-1.77125e-09
-1.88619e-09
-1.97803e-09
-2.04755e-09
-2.12277e-09
-2.17501e-09
-2.17684e-09
-2.08512e-09
-1.19086e-09
-1.93169e-09
5.29854e-09
-9.39617e-11
-1.12233e-09
-3.10469e-10
-1.78861e-10
-3.08788e-11
1.75023e-11
2.60188e-11
1.68023e-11
2.08433e-11
4.46848e-11
1.22215e-10
2.59961e-10
3.08227e-10
2.61154e-10
2.15858e-10
1.75133e-10
1.22577e-10
8.23559e-11
5.75456e-11
2.54402e-11
2.02782e-11
-1.43069e-11
-2.40461e-11
-4.14856e-11
-6.50571e-11
-6.5277e-11
-1.08561e-10
-9.81583e-11
-1.39954e-10
-1.65333e-10
-1.97619e-10
-2.15082e-10
-2.34351e-10
-2.87783e-10
-3.27285e-10
-3.6711e-10
-3.82972e-10
-4.1578e-10
-4.52704e-10
-4.7072e-10
-4.57238e-10
-4.4304e-10
-4.61215e-10
-5.04199e-10
-5.38634e-10
-5.63528e-10
-5.66924e-10
-5.84526e-10
-5.78219e-10
-6.0023e-10
-6.22275e-10
-6.40468e-10
-6.66971e-10
-6.80747e-10
-7.00968e-10
-7.20813e-10
-7.57675e-10
-7.77294e-10
-8.03449e-10
-8.02158e-10
-8.29386e-10
-8.50122e-10
-8.80558e-10
-9.14933e-10
-9.37423e-10
-9.6516e-10
-1.00308e-09
-1.04241e-09
-1.10247e-09
-1.21699e-09
-1.43485e-09
-1.61501e-09
-1.77044e-09
-1.88521e-09
-1.97696e-09
-2.05091e-09
-2.12405e-09
-2.17687e-09
-2.1872e-09
-2.08731e-09
-7.53246e-10
-1.74042e-09
3.81365e-09
-3.58729e-09
1.3631e-08
-2.03085e-10
-1.85383e-10
-2.21335e-11
2.32213e-11
2.66238e-11
1.52394e-11
1.40063e-11
4.02231e-11
9.41406e-11
2.42213e-10
2.91643e-10
2.43464e-10
2.0175e-10
1.64431e-10
9.92664e-11
5.39038e-11
3.88869e-11
1.03453e-12
-1.12242e-12
-4.15899e-11
-3.84855e-11
-6.66344e-11
-9.37815e-11
-8.07646e-11
-1.30629e-10
-1.17252e-10
-1.68086e-10
-1.86653e-10
-2.13347e-10
-2.23488e-10
-2.43703e-10
-2.9241e-10
-3.33572e-10
-3.72154e-10
-3.81385e-10
-4.14561e-10
-4.47596e-10
-4.63302e-10
-4.61711e-10
-4.59507e-10
-4.72332e-10
-5.15526e-10
-5.45391e-10
-5.73041e-10
-5.70502e-10
-5.91519e-10
-5.87914e-10
-6.17939e-10
-6.42029e-10
-6.56559e-10
-6.92317e-10
-7.08406e-10
-7.17896e-10
-7.44162e-10
-7.81254e-10
-8.03097e-10
-8.24349e-10
-8.17298e-10
-8.51581e-10
-8.72996e-10
-9.02264e-10
-9.37665e-10
-9.64595e-10
-9.82941e-10
-1.02875e-09
-1.05903e-09
-1.11862e-09
-1.24456e-09
-1.4331e-09
-1.63857e-09
-1.7724e-09
-1.885e-09
-1.97506e-09
-2.05103e-09
-2.12863e-09
-2.18701e-09
-2.21953e-09
-2.26121e-09
-1.12887e-08
-2.23419e-09
5.9813e-09
-5.73987e-09
-2.20301e-08
-9.06981e-10
-1.97077e-10
4.57693e-12
3.77577e-11
3.08525e-11
1.19838e-11
1.65385e-12
2.90558e-11
6.59894e-11
2.0935e-10
2.35874e-10
2.01868e-10
1.66465e-10
1.04975e-10
5.50456e-11
8.27615e-12
-2.12995e-11
-3.06519e-11
-5.03848e-11
-7.87462e-11
-9.55302e-11
-1.29031e-10
-1.26103e-10
-1.42434e-10
-1.68842e-10
-1.74849e-10
-2.16181e-10
-2.30437e-10
-2.77434e-10
-2.55613e-10
-2.99753e-10
-3.16148e-10
-3.48627e-10
-3.84778e-10
-3.87277e-10
-4.24292e-10
-4.57843e-10
-4.73337e-10
-4.81692e-10
-4.88039e-10
-4.9027e-10
-5.35643e-10
-5.58743e-10
-5.89888e-10
-5.77754e-10
-6.1777e-10
-6.41143e-10
-6.48224e-10
-7.08047e-10
-7.02887e-10
-7.4296e-10
-7.59257e-10
-7.58498e-10
-8.05713e-10
-8.27641e-10
-8.54653e-10
-8.97571e-10
-8.62221e-10
-9.10783e-10
-9.2441e-10
-9.48327e-10
-9.86909e-10
-1.01004e-09
-1.02334e-09
-1.08495e-09
-1.09654e-09
-1.14181e-09
-1.28669e-09
-1.45183e-09
-1.64164e-09
-1.77069e-09
-1.88409e-09
-1.9718e-09
-2.05464e-09
-2.13493e-09
-2.20591e-09
-2.26621e-09
-1.73393e-09
1.40706e-08
-1.07437e-09
7.41717e-09
-1.82616e-09
1.39918e-08
-3.95542e-10
-1.83971e-10
5.56988e-11
6.14861e-11
4.39828e-11
1.04225e-11
-1.29635e-11
1.25459e-11
4.19845e-11
1.32288e-10
1.58482e-10
1.28157e-10
1.14674e-10
2.11541e-11
2.86283e-12
-5.67462e-11
-8.35426e-11
-9.85349e-11
-1.2033e-10
-1.31159e-10
-1.68131e-10
-1.76478e-10
-1.91437e-10
-2.01243e-10
-2.20129e-10
-2.33591e-10
-2.75718e-10
-2.8956e-10
-3.19482e-10
-3.36613e-10
-3.42173e-10
-3.66975e-10
-3.81147e-10
-4.03933e-10
-3.99592e-10
-4.41633e-10
-4.78961e-10
-4.94959e-10
-5.11764e-10
-5.24257e-10
-5.09066e-10
-5.62452e-10
-5.76161e-10
-6.13423e-10
-6.19003e-10
-6.85828e-10
-6.91142e-10
-7.08397e-10
-7.58644e-10
-7.90306e-10
-7.90994e-10
-8.1626e-10
-8.37423e-10
-8.64832e-10
-8.95113e-10
-9.16203e-10
-9.49488e-10
-9.40138e-10
-9.61348e-10
-9.786e-10
-1.03871e-09
-1.03362e-09
-1.05321e-09
-1.10551e-09
-1.13267e-09
-1.12664e-09
-1.18579e-09
-1.33953e-09
-1.48671e-09
-1.63891e-09
-1.76633e-09
-1.88315e-09
-1.96983e-09
-2.05364e-09
-2.13912e-09
-2.22553e-09
-2.34102e-09
-2.29912e-09
-1.77889e-08
-1.64636e-09
2.97903e-09
-1.22293e-09
-4.53646e-09
-8.97452e-10
-1.99572e-10
9.07055e-11
1.11721e-10
7.46343e-11
1.02508e-11
-1.96514e-11
5.54818e-12
2.8568e-11
5.44002e-11
8.2726e-11
6.09087e-11
4.45229e-11
-5.83722e-11
-8.41911e-11
-1.44482e-10
-1.6455e-10
-1.82668e-10
-1.40436e-10
-1.60021e-10
-2.52258e-10
-2.70059e-10
-2.65604e-10
-2.74271e-10
-2.96075e-10
-3.12882e-10
-3.51382e-10
-3.9027e-10
-4.04799e-10
-3.83385e-10
-4.22049e-10
-4.47965e-10
-4.64886e-10
-4.68734e-10
-4.79683e-10
-4.59226e-10
-5.07396e-10
-5.2066e-10
-5.42437e-10
-5.66308e-10
-5.25404e-10
-5.89625e-10
-6.56855e-10
-6.85452e-10
-7.09604e-10
-7.51915e-10
-7.66693e-10
-7.84817e-10
-8.44567e-10
-8.72436e-10
-8.87681e-10
-9.08044e-10
-9.03408e-10
-9.0476e-10
-9.80748e-10
-9.97679e-10
-9.88709e-10
-1.01093e-09
-1.05147e-09
-1.06751e-09
-1.12158e-09
-1.12398e-09
-1.14396e-09
-1.1786e-09
-1.18631e-09
-1.2074e-09
-1.26544e-09
-1.39417e-09
-1.51758e-09
-1.63075e-09
-1.76012e-09
-1.8756e-09
-1.96953e-09
-2.05289e-09
-2.13805e-09
-2.25576e-09
-2.31016e-09
-1.8304e-09
1.14578e-09
-1.75247e-09
-3.93352e-09
-1.16603e-09
-2.15685e-10
6.49525e-11
1.99209e-10
1.43441e-10
3.0298e-11
-1.81435e-11
2.76005e-11
2.05491e-11
4.97525e-11
1.75641e-11
-8.23387e-12
3.14011e-11
-8.69421e-11
-1.22846e-10
-1.83229e-10
-2.21837e-10
-1.97183e-10
-1.38676e-10
-2.02269e-10
-2.44102e-10
-3.0459e-10
-2.96756e-10
-2.95289e-10
-3.19832e-10
-3.74242e-10
-3.78972e-10
-4.09745e-10
-4.19208e-10
-3.66226e-10
-4.94381e-10
-4.68066e-10
-4.94768e-10
-4.87099e-10
-5.49575e-10
-4.60415e-10
-5.33664e-10
-5.37094e-10
-5.70674e-10
-6.1497e-10
-5.6247e-10
-6.09457e-10
-6.93315e-10
-7.07855e-10
-7.62794e-10
-7.80182e-10
-7.86311e-10
-7.98062e-10
-8.64772e-10
-8.6315e-10
-9.20928e-10
-9.35779e-10
-9.14251e-10
-9.26727e-10
-9.9917e-10
-1.02581e-09
-1.03913e-09
-1.02197e-09
-1.11769e-09
-1.07852e-09
-1.15749e-09
-1.14506e-09
-1.16282e-09
-1.22004e-09
-1.19146e-09
-1.21305e-09
-1.27888e-09
-1.39089e-09
-1.52101e-09
-1.62154e-09
-1.73083e-09
-1.85821e-09
-1.94723e-09
-2.05749e-09
-2.16087e-09
-2.2718e-09
-2.2808e-09
-1.59119e-09
4.71695e-10
-2.9057e-10
-1.64264e-09
-1.88521e-10
5.89063e-11
4.61231e-10
3.81063e-10
2.04759e-10
1.27948e-10
2.45452e-10
2.17343e-10
2.48556e-10
2.07187e-10
1.72927e-10
1.87111e-10
4.88659e-11
-8.84726e-11
-4.79417e-11
2.72616e-11
-6.07039e-11
-1.52431e-11
-1.1225e-10
-1.43865e-10
-2.82398e-10
-1.90917e-10
-7.78935e-11
-1.89358e-10
-2.01171e-10
-2.56234e-10
-3.67563e-10
-2.9219e-10
-2.34036e-10
-2.63412e-10
-3.28033e-10
-3.23449e-10
-3.65003e-10
-3.38329e-10
-3.13748e-10
-3.22433e-10
-4.09095e-10
-4.75301e-10
-4.51098e-10
-5.41133e-10
-5.18595e-10
-5.34842e-10
-5.84384e-10
-7.13969e-10
-6.70201e-10
-7.10113e-10
-6.10277e-10
-7.26401e-10
-7.3478e-10
-9.13144e-10
-7.62576e-10
-7.68408e-10
-8.04239e-10
-8.70917e-10
-8.64483e-10
-9.08145e-10
-9.9534e-10
-9.08394e-10
-9.96328e-10
-9.98211e-10
-1.02347e-09
-9.5228e-10
-1.22842e-09
-1.08537e-09
-1.15586e-09
-1.11843e-09
-1.31135e-09
-1.4636e-09
-1.57031e-09
-1.62612e-09
-1.81426e-09
-1.88353e-09
-2.00059e-09
-2.1789e-09
-2.28415e-09
-2.28804e-09
-1.09703e-09
-3.18534e-09
2.32102e-08
4.3557e-10
7.98045e-11
3.84075e-11
-7.54482e-12
-3.0719e-11
1.39561e-11
7.26791e-11
1.49422e-10
9.7883e-11
3.34991e-11
1.42824e-10
2.12445e-10
2.23085e-10
2.00572e-10
1.03939e-10
1.19844e-10
1.84728e-10
1.53408e-10
-3.9263e-11
2.656e-11
-2.09953e-12
9.05583e-11
-8.81568e-11
-5.69609e-11
-1.00463e-10
-3.27794e-11
-6.80615e-11
-2.41105e-10
-9.6804e-11
-2.03833e-10
-1.91509e-10
-3.24284e-10
-2.32964e-10
-2.7032e-10
-3.46305e-10
-4.67269e-10
-3.34893e-10
-4.13937e-10
-4.21315e-10
-5.90378e-10
-4.82741e-10
-4.51398e-10
-4.77429e-10
-5.20501e-10
-6.65467e-10
-5.17985e-10
-5.55206e-10
-5.42568e-10
-7.09165e-10
-6.38548e-10
-6.19869e-10
-6.15729e-10
-7.77331e-10
-7.23422e-10
-6.70643e-10
-7.69848e-10
-8.0653e-10
-9.13512e-10
-8.03018e-10
-8.48591e-10
-9.13796e-10
-9.66733e-10
-9.23669e-10
-1.06198e-09
-1.06789e-09
-1.19908e-09
-1.17359e-09
-1.1644e-09
-1.42394e-09
-1.53114e-09
-1.59939e-09
-1.70547e-09
-1.75584e-09
-2.0698e-09
-2.2024e-09
-2.3569e-09
-2.54369e-09
-3.20288e-09
-2.66346e-08
-6.13487e-09
-1.65409e-08
-3.47966e-10
9.82248e-12
1.0179e-11
-4.54212e-11
-7.15238e-11
-6.88603e-11
-5.90676e-11
-1.12081e-10
-6.62772e-11
-6.47172e-11
9.83045e-11
1.90266e-10
1.12937e-10
1.57957e-10
1.48908e-10
4.4633e-11
1.14912e-10
1.16885e-10
1.21486e-11
-1.00521e-10
-5.18441e-11
1.9914e-11
-3.91684e-11
-3.67646e-11
-1.52343e-10
-9.72549e-11
-1.30977e-10
-1.66767e-10
-1.54392e-10
-1.84193e-10
-2.6448e-10
-2.66225e-10
-3.49274e-10
-3.11564e-10
-3.84854e-10
-4.04341e-10
-3.53575e-10
-4.89216e-10
-4.81469e-10
-5.28614e-10
-5.53638e-10
-4.90187e-10
-4.78164e-10
-5.25556e-10
-6.25555e-10
-5.85429e-10
-5.88235e-10
-5.51895e-10
-6.26542e-10
-6.99143e-10
-6.74226e-10
-6.24592e-10
-7.30543e-10
-7.51882e-10
-6.94456e-10
-8.26059e-10
-7.93443e-10
-8.51469e-10
-8.56662e-10
-8.70964e-10
-9.30101e-10
-8.93778e-10
-9.64072e-10
-1.08183e-09
-1.07134e-09
-1.13033e-09
-1.16306e-09
-1.20189e-09
-1.45324e-09
-1.60505e-09
-1.69629e-09
-1.7936e-09
-1.88487e-09
-2.06419e-09
-2.18727e-09
-2.31863e-09
-2.45975e-09
-2.39462e-09
1.28225e-08
-6.74403e-09
1.60372e-09
-5.17157e-09
-4.50229e-10
-4.49457e-11
-1.11762e-12
-5.89141e-11
-8.10885e-11
-7.4261e-11
-9.38693e-11
-1.20641e-10
-9.94429e-11
-1.0325e-11
8.62853e-11
2.03616e-10
1.92264e-10
1.4314e-10
1.87965e-10
6.67394e-11
1.19281e-10
1.01555e-10
4.12893e-11
-6.37419e-11
-5.84878e-11
1.91528e-11
1.02236e-11
-3.044e-11
-1.63508e-10
-1.13985e-10
-1.38709e-10
-1.19167e-10
-1.57207e-10
-1.62464e-10
-2.94124e-10
-2.31823e-10
-3.08686e-10
-2.99698e-10
-3.99675e-10
-3.53448e-10
-3.50624e-10
-5.15317e-10
-5.06269e-10
-4.86393e-10
-5.63816e-10
-4.79735e-10
-4.46672e-10
-5.42157e-10
-6.12717e-10
-5.91816e-10
-5.53826e-10
-5.12365e-10
-6.14301e-10
-6.76791e-10
-6.70286e-10
-6.2939e-10
-7.14271e-10
-6.90096e-10
-6.88876e-10
-8.28203e-10
-7.51254e-10
-8.30648e-10
-8.62752e-10
-8.41055e-10
-9.3635e-10
-8.9445e-10
-9.62761e-10
-1.03327e-09
-1.08164e-09
-1.09883e-09
-1.17158e-09
-1.27152e-09
-1.49751e-09
-1.64655e-09
-1.7412e-09
-1.83674e-09
-1.93988e-09
-2.0751e-09
-2.1843e-09
-2.29643e-09
-2.3856e-09
-2.23744e-09
1.71028e-09
-5.42071e-09
-1.27168e-08
1.63483e-10
-2.65053e-09
-4.27305e-10
-8.57501e-11
-1.79093e-12
-7.60639e-11
-9.18996e-11
-6.8672e-11
-1.15821e-10
-1.2913e-10
-1.21866e-10
-1.10993e-11
1.34112e-11
1.43933e-10
1.46485e-10
2.91343e-11
9.02426e-11
2.95693e-12
3.92855e-11
3.61632e-11
1.36239e-11
-2.0756e-10
-1.19153e-10
-5.4636e-11
-6.07011e-11
-8.29158e-11
-2.33172e-10
-1.88495e-10
-2.31373e-10
-1.93082e-10
-2.00756e-10
-2.17044e-10
-3.84361e-10
-2.93837e-10
-3.60236e-10
-3.49633e-10
-4.6283e-10
-3.93341e-10
-4.21103e-10
-6.07089e-10
-5.80744e-10
-5.11606e-10
-6.59196e-10
-5.36455e-10
-5.52522e-10
-6.07039e-10
-6.74168e-10
-6.54518e-10
-6.5588e-10
-5.5776e-10
-6.76511e-10
-7.52533e-10
-7.16443e-10
-7.30023e-10
-7.69417e-10
-7.38325e-10
-8.10438e-10
-8.94189e-10
-8.19837e-10
-8.98219e-10
-9.22302e-10
-8.60124e-10
-1.03674e-09
-9.35642e-10
-1.02212e-09
-1.062e-09
-1.13187e-09
-1.16737e-09
-1.21829e-09
-1.39775e-09
-1.52959e-09
-1.68284e-09
-1.76486e-09
-1.86257e-09
-1.97053e-09
-2.08456e-09
-2.18187e-09
-2.27888e-09
-2.32494e-09
-2.19469e-09
-5.74884e-10
-3.89217e-09
-1.40878e-08
-3.37097e-10
-1.19669e-10
-3.24502e-10
-1.13562e-10
1.4321e-11
-1.05681e-10
-1.16405e-10
-9.54397e-11
-1.74363e-10
-1.84934e-10
-2.15672e-10
-2.62474e-10
-1.24095e-10
-2.21674e-10
-2.38978e-10
-1.76618e-10
-2.99701e-10
-2.3266e-10
-3.6229e-10
-3.99682e-10
-3.96771e-10
-4.19515e-10
-3.22202e-10
-4.56909e-10
-4.67352e-10
-5.21493e-10
-4.24465e-10
-4.25254e-10
-6.38875e-10
-5.86581e-10
-5.92355e-10
-4.62915e-10
-6.03028e-10
-6.81004e-10
-7.85229e-10
-7.10296e-10
-6.11941e-10
-8.28276e-10
-7.78458e-10
-8.03009e-10
-7.93514e-10
-8.94364e-10
-8.7185e-10
-9.85442e-10
-9.27461e-10
-7.96785e-10
-8.71886e-10
-1.06151e-09
-1.05687e-09
-9.96926e-10
-8.77867e-10
-9.55824e-10
-1.10024e-09
-1.16477e-09
-9.95371e-10
-1.19137e-09
-1.16646e-09
-1.10256e-09
-1.19467e-09
-1.12015e-09
-1.33956e-09
-1.29028e-09
-1.25225e-09
-1.31558e-09
-1.25242e-09
-1.43579e-09
-1.52791e-09
-1.38387e-09
-1.58837e-09
-1.56421e-09
-1.60857e-09
-1.78303e-09
-1.87695e-09
-1.95491e-09
-2.03104e-09
-2.13262e-09
-2.20553e-09
-2.28238e-09
-2.28166e-09
-2.22105e-09
-2.80039e-09
-3.77234e-09
-7.66161e-09
-8.43633e-10
-4.23978e-09
-6.26353e-10
-1.46203e-10
4.60864e-11
-2.78666e-11
-4.76986e-11
-1.09351e-10
-1.51864e-10
-2.25884e-10
-3.09679e-10
-4.613e-10
-5.39126e-10
-5.90818e-10
-6.29989e-10
-6.04969e-10
-6.92885e-10
-7.20288e-10
-7.55877e-10
-6.88839e-10
-7.71481e-10
-6.61691e-10
-8.01726e-10
-8.38356e-10
-8.64738e-10
-7.81251e-10
-8.42333e-10
-9.2974e-10
-8.50276e-10
-9.5366e-10
-9.80347e-10
-9.51936e-10
-8.89879e-10
-1.02794e-09
-1.00219e-09
-1.0694e-09
-1.0618e-09
-9.98787e-10
-1.1027e-09
-1.00845e-09
-1.05697e-09
-1.11359e-09
-1.08987e-09
-1.12606e-09
-1.2687e-09
-1.26207e-09
-1.27727e-09
-1.2545e-09
-1.28606e-09
-1.37993e-09
-1.37106e-09
-1.37299e-09
-1.44855e-09
-1.40349e-09
-1.49144e-09
-1.43751e-09
-1.53918e-09
-1.53735e-09
-1.56768e-09
-1.56711e-09
-1.53539e-09
-1.68707e-09
-1.53788e-09
-1.68022e-09
-1.7465e-09
-1.7559e-09
-1.69627e-09
-1.76319e-09
-1.77646e-09
-1.81265e-09
-1.8882e-09
-1.86136e-09
-1.90865e-09
-1.95913e-09
-2.02734e-09
-2.11532e-09
-2.20772e-09
-2.27859e-09
-2.24822e-09
-1.85635e-09
1.64575e-09
-2.98981e-09
-6.20899e-09
-1.10457e-09
-2.34105e-09
-5.79023e-10
-1.44835e-10
1.43685e-10
-1.64821e-11
-4.29564e-11
-1.0496e-10
-1.47055e-10
-2.16736e-10
-3.06702e-10
-4.23713e-10
-5.34679e-10
-5.89363e-10
-6.19408e-10
-6.33891e-10
-7.00763e-10
-7.26311e-10
-7.62132e-10
-7.18555e-10
-7.71529e-10
-7.08515e-10
-8.10132e-10
-8.41479e-10
-8.62727e-10
-8.32085e-10
-8.62037e-10
-9.15494e-10
-8.87509e-10
-9.58426e-10
-9.78028e-10
-9.53264e-10
-9.49006e-10
-9.98672e-10
-1.03053e-09
-1.04685e-09
-1.04703e-09
-1.03412e-09
-1.07376e-09
-1.04594e-09
-1.08275e-09
-1.11825e-09
-1.11535e-09
-1.15203e-09
-1.23197e-09
-1.23886e-09
-1.27633e-09
-1.27699e-09
-1.33229e-09
-1.37516e-09
-1.36988e-09
-1.3963e-09
-1.43708e-09
-1.44857e-09
-1.49497e-09
-1.48521e-09
-1.53729e-09
-1.55023e-09
-1.56282e-09
-1.56118e-09
-1.57443e-09
-1.66109e-09
-1.58294e-09
-1.68737e-09
-1.75227e-09
-1.73736e-09
-1.71412e-09
-1.75565e-09
-1.7909e-09
-1.81212e-09
-1.82973e-09
-1.84246e-09
-1.89147e-09
-1.94725e-09
-2.01782e-09
-2.10252e-09
-2.19828e-09
-2.28941e-09
-2.27098e-09
-1.83158e-09
2.49073e-10
-1.66574e-09
-4.82321e-09
-1.04749e-09
5.72926e-10
-4.28925e-10
-1.23342e-10
-4.0754e-12
-1.98515e-11
-4.82376e-11
-1.0492e-10
-1.51042e-10
-2.16357e-10
-2.88025e-10
-4.15651e-10
-4.82744e-10
-5.37425e-10
-5.5795e-10
-5.82473e-10
-6.37045e-10
-6.58807e-10
-7.01125e-10
-7.22729e-10
-7.05121e-10
-7.28396e-10
-7.49065e-10
-7.79974e-10
-7.95308e-10
-7.85765e-10
-8.05616e-10
-8.41734e-10
-8.34648e-10
-8.95924e-10
-9.0852e-10
-9.50397e-10
-9.08076e-10
-9.84649e-10
-9.70377e-10
-1.03228e-09
-1.04272e-09
-1.04606e-09
-1.07158e-09
-1.0637e-09
-1.09698e-09
-1.12259e-09
-1.13094e-09
-1.16622e-09
-1.21756e-09
-1.22678e-09
-1.21506e-09
-1.27781e-09
-1.27989e-09
-1.30725e-09
-1.36354e-09
-1.34038e-09
-1.3775e-09
-1.39541e-09
-1.42211e-09
-1.43769e-09
-1.47027e-09
-1.49174e-09
-1.50705e-09
-1.55926e-09
-1.53888e-09
-1.58662e-09
-1.59728e-09
-1.62388e-09
-1.68391e-09
-1.68615e-09
-1.68222e-09
-1.71038e-09
-1.74291e-09
-1.80536e-09
-1.81229e-09
-1.83326e-09
-1.8805e-09
-1.94134e-09
-2.01249e-09
-2.09162e-09
-2.19427e-09
-2.23148e-09
-2.41358e-09
-1.93456e-09
-1.75112e-09
-1.15745e-09
-3.10218e-09
-5.04771e-10
-5.75292e-09
-5.77085e-10
-1.70129e-10
-5.37836e-11
-2.42963e-11
-5.194e-11
-1.04803e-10
-1.53231e-10
-2.14608e-10
-2.83037e-10
-3.862e-10
-4.44596e-10
-4.80936e-10
-4.92463e-10
-5.58198e-10
-6.07107e-10
-6.1426e-10
-6.68353e-10
-6.72506e-10
-6.87695e-10
-6.96935e-10
-7.167e-10
-7.55886e-10
-7.57717e-10
-7.84632e-10
-7.80132e-10
-8.10542e-10
-8.23782e-10
-8.73104e-10
-8.89624e-10
-9.17625e-10
-9.11622e-10
-9.60932e-10
-9.78323e-10
-1.02524e-09
-1.03854e-09
-1.04946e-09
-1.07112e-09
-1.07114e-09
-1.10084e-09
-1.12616e-09
-1.1396e-09
-1.17359e-09
-1.21186e-09
-1.22403e-09
-1.22322e-09
-1.26467e-09
-1.27168e-09
-1.29276e-09
-1.31422e-09
-1.33016e-09
-1.35868e-09
-1.36579e-09
-1.40415e-09
-1.41597e-09
-1.44208e-09
-1.47278e-09
-1.49066e-09
-1.5228e-09
-1.51762e-09
-1.54103e-09
-1.56726e-09
-1.60963e-09
-1.652e-09
-1.65504e-09
-1.67594e-09
-1.70308e-09
-1.7356e-09
-1.79014e-09
-1.8028e-09
-1.82288e-09
-1.8747e-09
-1.93693e-09
-2.00582e-09
-2.08046e-09
-2.11363e-09
-2.19543e-09
-2.22578e-09
-1.76509e-09
3.73839e-09
-2.37142e-09
-1.37337e-09
8.80069e-11
-3.62887e-10
-3.87555e-10
-1.67188e-10
-2.7688e-11
-2.74733e-11
-5.29912e-11
-1.04008e-10
-1.56258e-10
-2.11977e-10
-2.83823e-10
-3.74249e-10
-4.16453e-10
-4.4403e-10
-4.72631e-10
-5.08955e-10
-5.52718e-10
-6.01008e-10
-6.09457e-10
-6.43921e-10
-6.65984e-10
-6.8033e-10
-6.97692e-10
-7.0477e-10
-7.46455e-10
-7.3364e-10
-7.71925e-10
-7.58564e-10
-8.15492e-10
-8.28532e-10
-8.74558e-10
-8.99373e-10
-9.05628e-10
-9.53065e-10
-9.82763e-10
-1.02199e-09
-1.03598e-09
-1.04941e-09
-1.06892e-09
-1.0732e-09
-1.10381e-09
-1.13296e-09
-1.14876e-09
-1.17991e-09
-1.21069e-09
-1.22542e-09
-1.22898e-09
-1.25621e-09
-1.25362e-09
-1.28308e-09
-1.29968e-09
-1.31191e-09
-1.3192e-09
-1.35163e-09
-1.38258e-09
-1.40147e-09
-1.42376e-09
-1.43351e-09
-1.47756e-09
-1.47825e-09
-1.50207e-09
-1.51788e-09
-1.54891e-09
-1.58868e-09
-1.60227e-09
-1.63911e-09
-1.64932e-09
-1.69349e-09
-1.72348e-09
-1.77237e-09
-1.80069e-09
-1.81534e-09
-1.86976e-09
-1.93299e-09
-2.00013e-09
-2.06681e-09
-2.11912e-09
-2.1773e-09
-2.16952e-09
-1.98989e-09
-2.98723e-09
-2.07256e-09
-2.30979e-10
2.96665e-11
-8.0964e-10
-3.82462e-10
-1.76656e-10
-4.75528e-11
-2.91655e-11
-5.29722e-11
-1.04337e-10
-1.58044e-10
-2.12427e-10
-2.82167e-10
-3.68879e-10
-3.97528e-10
-4.27374e-10
-4.65273e-10
-4.95852e-10
-5.42899e-10
-5.77865e-10
-6.04231e-10
-6.34564e-10
-6.45329e-10
-6.65699e-10
-6.88824e-10
-7.01131e-10
-7.218e-10
-7.20322e-10
-7.65949e-10
-7.58215e-10
-7.94979e-10
-8.2517e-10
-8.62247e-10
-8.8702e-10
-9.03387e-10
-9.51481e-10
-9.85119e-10
-1.02118e-09
-1.03377e-09
-1.04866e-09
-1.06775e-09
-1.07517e-09
-1.11176e-09
-1.14856e-09
-1.1639e-09
-1.18978e-09
-1.21276e-09
-1.22843e-09
-1.23246e-09
-1.2527e-09
-1.24971e-09
-1.26334e-09
-1.28716e-09
-1.30438e-09
-1.31942e-09
-1.33494e-09
-1.36132e-09
-1.38643e-09
-1.41507e-09
-1.43143e-09
-1.461e-09
-1.46413e-09
-1.48621e-09
-1.50795e-09
-1.54019e-09
-1.57083e-09
-1.58933e-09
-1.61793e-09
-1.65019e-09
-1.67977e-09
-1.72003e-09
-1.75202e-09
-1.79399e-09
-1.81285e-09
-1.86554e-09
-1.92939e-09
-1.99684e-09
-2.05963e-09
-2.12194e-09
-2.16722e-09
-2.1549e-09
-2.00468e-09
-1.77077e-09
-1.53711e-09
2.61651e-10
3.421e-11
-6.06121e-10
-3.89451e-10
-1.84898e-10
-5.40273e-11
-2.87848e-11
-5.08297e-11
-1.04568e-10
-1.6006e-10
-2.13589e-10
-2.81419e-10
-3.68009e-10
-4.01128e-10
-4.32507e-10
-4.57455e-10
-4.88363e-10
-5.40951e-10
-5.69183e-10
-5.96941e-10
-6.28107e-10
-6.34382e-10
-6.6433e-10
-6.79756e-10
-6.93953e-10
-7.14984e-10
-7.15568e-10
-7.65443e-10
-7.52028e-10
-7.89735e-10
-8.17082e-10
-8.5097e-10
-8.79657e-10
-8.95336e-10
-9.49904e-10
-9.85306e-10
-1.02094e-09
-1.02996e-09
-1.0448e-09
-1.06358e-09
-1.07172e-09
-1.1059e-09
-1.14318e-09
-1.15762e-09
-1.1867e-09
-1.21002e-09
-1.22952e-09
-1.2323e-09
-1.24972e-09
-1.24031e-09
-1.25239e-09
-1.27605e-09
-1.2955e-09
-1.31658e-09
-1.33144e-09
-1.3501e-09
-1.38e-09
-1.40702e-09
-1.42523e-09
-1.45477e-09
-1.45607e-09
-1.47725e-09
-1.49741e-09
-1.53183e-09
-1.56444e-09
-1.58694e-09
-1.60476e-09
-1.64694e-09
-1.67167e-09
-1.71886e-09
-1.74698e-09
-1.78576e-09
-1.81051e-09
-1.86457e-09
-1.92839e-09
-1.99577e-09
-2.06085e-09
-2.12484e-09
-2.16859e-09
-2.16421e-09
-2.0125e-09
-1.52752e-09
-1.56403e-09
3.47446e-10
3.68044e-10
4.62031e-10
-4.23917e-10
-1.90769e-10
-5.03889e-11
-2.45194e-11
-5.78956e-11
-1.05131e-10
-1.62166e-10
-2.16023e-10
-2.76701e-10
-3.6758e-10
-4.10799e-10
-4.4957e-10
-4.56847e-10
-5.03148e-10
-5.5451e-10
-5.79327e-10
-6.09976e-10
-6.46894e-10
-6.51788e-10
-6.90601e-10
-6.87611e-10
-7.13278e-10
-7.39079e-10
-7.27098e-10
-7.74043e-10
-7.63609e-10
-8.08546e-10
-8.25984e-10
-8.62039e-10
-8.766e-10
-8.85163e-10
-9.48627e-10
-9.84709e-10
-1.02449e-09
-1.02924e-09
-1.0501e-09
-1.07607e-09
-1.08826e-09
-1.11195e-09
-1.14195e-09
-1.15392e-09
-1.18638e-09
-1.2076e-09
-1.23171e-09
-1.22987e-09
-1.24786e-09
-1.22974e-09
-1.25574e-09
-1.28528e-09
-1.30053e-09
-1.33279e-09
-1.34694e-09
-1.36085e-09
-1.38634e-09
-1.43401e-09
-1.44726e-09
-1.46657e-09
-1.45904e-09
-1.49977e-09
-1.51151e-09
-1.5428e-09
-1.57786e-09
-1.60323e-09
-1.61745e-09
-1.6589e-09
-1.69511e-09
-1.72393e-09
-1.78419e-09
-1.79874e-09
-1.81964e-09
-1.86802e-09
-1.9302e-09
-1.99613e-09
-2.06297e-09
-2.12974e-09
-2.17794e-09
-2.19938e-09
-2.03027e-09
-2.02797e-09
-1.91191e-09
1.43869e-10
2.64085e-10
-6.64137e-09
-7.06297e-10
-1.90009e-10
-3.22082e-11
-1.60039e-11
-5.51207e-11
-1.06346e-10
-1.64734e-10
-2.18738e-10
-2.73783e-10
-3.70833e-10
-4.54353e-10
-4.70643e-10
-4.92899e-10
-5.43784e-10
-5.7187e-10
-6.19649e-10
-6.60621e-10
-6.62924e-10
-6.96179e-10
-7.15718e-10
-7.33961e-10
-7.64972e-10
-7.50244e-10
-7.72205e-10
-8.07006e-10
-8.05414e-10
-8.60312e-10
-8.67241e-10
-9.14869e-10
-8.89948e-10
-9.2283e-10
-9.57308e-10
-9.8465e-10
-1.02849e-09
-1.02384e-09
-1.05009e-09
-1.08229e-09
-1.0952e-09
-1.10986e-09
-1.13827e-09
-1.14651e-09
-1.18572e-09
-1.20328e-09
-1.23675e-09
-1.22641e-09
-1.25508e-09
-1.26639e-09
-1.28776e-09
-1.3322e-09
-1.34529e-09
-1.38417e-09
-1.39358e-09
-1.40118e-09
-1.43243e-09
-1.45501e-09
-1.49897e-09
-1.52454e-09
-1.50358e-09
-1.55106e-09