/*--------------------------------*- C++ -*----------------------------------*\
| =========                 |                                                 |
| \\      /  F ield         | OpenFOAM: The Open Source CFD Toolbox           |
|  \\    /   O peration     | Version:  v1906                                 |
|   \\  /    A nd           | Web:      www.OpenFOAM.com                      |
|    \\/     M anipulation  |                                                 |
\*---------------------------------------------------------------------------*/
FoamFile
{
    version     2.0;
    format      ascii;
    class       volScalarField;
    location    "44.5";
    object      p;
}
// * * * * * * * * * * * * * * * * * * * * * * * * * * * * * * * * * * * * * //

dimensions      [0 2 -2 0 0 0 0];


internalField   nonuniform List<scalar> 
243374
(
-3.98842e-14
-3.95105e-11
-5.92253e-11
-8.22086e-11
-1.04866e-10
-1.27205e-10
-1.49402e-10
-1.71483e-10
-1.93522e-10
-2.15518e-10
-2.37491e-10
-2.59469e-10
-2.81441e-10
-3.03401e-10
-3.25368e-10
-3.47326e-10
-3.69301e-10
-3.91273e-10
-4.13237e-10
-4.35217e-10
-4.572e-10
-4.79156e-10
-5.01124e-10
-5.23111e-10
-5.45077e-10
-5.67051e-10
-5.89027e-10
-6.10995e-10
-6.32969e-10
-6.54947e-10
-6.76921e-10
-6.9889e-10
-7.20864e-10
-7.4284e-10
-7.64817e-10
-7.86789e-10
-8.08752e-10
-8.30734e-10
-8.52713e-10
-8.74677e-10
-8.96648e-10
-9.18633e-10
-9.40597e-10
-9.62573e-10
-9.84544e-10
-1.00652e-09
-1.02849e-09
-1.05047e-09
-1.07245e-09
-1.09442e-09
-1.11641e-09
-1.13838e-09
-1.16036e-09
-1.18234e-09
-1.20434e-09
-1.22634e-09
-1.24835e-09
-1.27037e-09
-1.29242e-09
-1.3145e-09
-1.33664e-09
-1.35883e-09
-1.38111e-09
-1.40352e-09
-1.42613e-09
-1.449e-09
-1.47224e-09
-1.49603e-09
-1.52058e-09
-1.54616e-09
-1.57333e-09
-1.60255e-09
-1.63475e-09
-1.67091e-09
-1.71272e-09
-1.76233e-09
-1.82227e-09
-1.8956e-09
-1.98017e-09
-2.11575e-09
-1.30661e-11
-4.02831e-11
-5.95972e-11
-8.23792e-11
-1.04958e-10
-1.2727e-10
-1.49447e-10
-1.71521e-10
-1.93534e-10
-2.15533e-10
-2.37513e-10
-2.5948e-10
-2.8144e-10
-3.03405e-10
-3.25371e-10
-3.47344e-10
-3.69314e-10
-3.91277e-10
-4.13259e-10
-4.3522e-10
-4.57189e-10
-4.79183e-10
-5.01148e-10
-5.23103e-10
-5.45089e-10
-5.67061e-10
-5.89032e-10
-6.11007e-10
-6.32978e-10
-6.54949e-10
-6.76927e-10
-6.98902e-10
-7.20872e-10
-7.42845e-10
-7.64824e-10
-7.86793e-10
-8.08772e-10
-8.30739e-10
-8.52714e-10
-8.7469e-10
-8.96661e-10
-9.18634e-10
-9.40608e-10
-9.62585e-10
-9.84547e-10
-1.00653e-09
-1.02851e-09
-1.05047e-09
-1.07246e-09
-1.09444e-09
-1.1164e-09
-1.13838e-09
-1.16036e-09
-1.18236e-09
-1.20434e-09
-1.22635e-09
-1.24835e-09
-1.27038e-09
-1.29243e-09
-1.31451e-09
-1.33663e-09
-1.35882e-09
-1.38111e-09
-1.40354e-09
-1.42614e-09
-1.44902e-09
-1.4723e-09
-1.4961e-09
-1.5207e-09
-1.54641e-09
-1.57359e-09
-1.60296e-09
-1.63536e-09
-1.67182e-09
-1.71405e-09
-1.76405e-09
-1.82445e-09
-1.89851e-09
-1.98509e-09
-2.10676e-09
-2.99363e-11
-4.04616e-11
-5.984e-11
-8.24727e-11
-1.05e-10
-1.27285e-10
-1.49438e-10
-1.71516e-10
-1.93545e-10
-2.15532e-10
-2.37498e-10
-2.59473e-10
-2.8144e-10
-3.03404e-10
-3.25366e-10
-3.47331e-10
-3.69295e-10
-3.91275e-10
-4.13236e-10
-4.35215e-10
-4.57197e-10
-4.7914e-10
-5.01123e-10
-5.23122e-10
-5.45078e-10
-5.6705e-10
-5.89029e-10
-6.10992e-10
-6.32969e-10
-6.54939e-10
-6.76911e-10
-6.98888e-10
-7.20869e-10
-7.42845e-10
-7.64808e-10
-7.86785e-10
-8.08752e-10
-8.30733e-10
-8.52714e-10
-8.74675e-10
-8.96656e-10
-9.18632e-10
-9.40599e-10
-9.62565e-10
-9.84552e-10
-1.00652e-09
-1.02849e-09
-1.05048e-09
-1.07244e-09
-1.09441e-09
-1.1164e-09
-1.13838e-09
-1.16037e-09
-1.18234e-09
-1.20433e-09
-1.22632e-09
-1.24834e-09
-1.27035e-09
-1.2924e-09
-1.31449e-09
-1.33662e-09
-1.35881e-09
-1.3811e-09
-1.40351e-09
-1.42613e-09
-1.44903e-09
-1.47229e-09
-1.49614e-09
-1.52074e-09
-1.54646e-09
-1.57375e-09
-1.60321e-09
-1.63566e-09
-1.67238e-09
-1.71487e-09
-1.76521e-09
-1.82602e-09
-1.90042e-09
-1.98811e-09
-2.09297e-09
1.26604e-10
-2.26562e-11
-3.80231e-11
-5.98637e-11
-8.25267e-11
-1.05037e-10
-1.27303e-10
-1.49494e-10
-1.71531e-10
-1.93541e-10
-2.15537e-10
-2.37526e-10
-2.59477e-10
-2.81447e-10
-3.03399e-10
-3.25372e-10
-3.47334e-10
-3.69318e-10
-3.91268e-10
-4.13261e-10
-4.35232e-10
-4.57188e-10
-4.79185e-10
-5.0114e-10
-5.2309e-10
-5.45082e-10
-5.67056e-10
-5.89031e-10
-6.11011e-10
-6.32974e-10
-6.54955e-10
-6.76933e-10
-6.98898e-10
-7.20859e-10
-7.42834e-10
-7.64831e-10
-7.86783e-10
-8.0877e-10
-8.30734e-10
-8.52701e-10
-8.74677e-10
-8.96656e-10
-9.18628e-10
-9.406e-10
-9.62593e-10
-9.84538e-10
-1.00653e-09
-1.02851e-09
-1.05045e-09
-1.07246e-09
-1.09444e-09
-1.1164e-09
-1.13837e-09
-1.16034e-09
-1.18235e-09
-1.20433e-09
-1.22635e-09
-1.24834e-09
-1.27038e-09
-1.29242e-09
-1.31448e-09
-1.33661e-09
-1.3588e-09
-1.38109e-09
-1.40353e-09
-1.42614e-09
-1.44902e-09
-1.47232e-09
-1.49615e-09
-1.5208e-09
-1.54655e-09
-1.57388e-09
-1.60341e-09
-1.63603e-09
-1.67285e-09
-1.71553e-09
-1.76614e-09
-1.82731e-09
-1.90221e-09
-1.99344e-09
-2.09995e-09
-2.21791e-09
1.15927e-10
-2.83781e-11
-3.87875e-11
-5.99113e-11
-8.25657e-11
-1.05061e-10
-1.27322e-10
-1.49454e-10
-1.71543e-10
-1.93555e-10
-2.15541e-10
-2.37514e-10
-2.59467e-10
-2.81434e-10
-3.03417e-10
-3.25366e-10
-3.47348e-10
-3.6929e-10
-3.91283e-10
-4.13234e-10
-4.35202e-10
-4.5718e-10
-4.79135e-10
-5.01133e-10
-5.23131e-10
-5.45083e-10
-5.67059e-10
-5.89025e-10
-6.10989e-10
-6.32973e-10
-6.54938e-10
-6.76913e-10
-6.98881e-10
-7.20866e-10
-7.42853e-10
-7.64804e-10
-7.86792e-10
-8.08756e-10
-8.30724e-10
-8.52701e-10
-8.74678e-10
-8.96649e-10
-9.18622e-10
-9.40594e-10
-9.62566e-10
-9.84554e-10
-1.00652e-09
-1.02848e-09
-1.05049e-09
-1.07243e-09
-1.0944e-09
-1.1164e-09
-1.13839e-09
-1.16037e-09
-1.18234e-09
-1.20432e-09
-1.2263e-09
-1.24833e-09
-1.27034e-09
-1.29239e-09
-1.3145e-09
-1.3366e-09
-1.3588e-09
-1.38108e-09
-1.40349e-09
-1.4261e-09
-1.44902e-09
-1.47228e-09
-1.49615e-09
-1.5208e-09
-1.54657e-09
-1.57392e-09
-1.60352e-09
-1.63616e-09
-1.67314e-09
-1.71597e-09
-1.76674e-09
-1.82814e-09
-1.90336e-09
-1.99437e-09
-2.09763e-09
-2.23604e-09
-2.45912e-09
1.10582e-10
-2.18306e-11
-3.74052e-11
-5.98362e-11
-8.2589e-11
-1.05054e-10
-1.27332e-10
-1.49509e-10
-1.71538e-10
-1.93552e-10
-2.15539e-10
-2.37515e-10
-2.59487e-10
-2.81445e-10
-3.03392e-10
-3.25382e-10
-3.47318e-10
-3.69318e-10
-3.91262e-10
-4.13249e-10
-4.35234e-10
-4.572e-10
-4.79187e-10
-5.01136e-10
-5.23083e-10
-5.45083e-10
-5.67048e-10
-5.89026e-10
-6.11005e-10
-6.32968e-10
-6.54947e-10
-6.76928e-10
-6.98912e-10
-7.20867e-10
-7.42824e-10
-7.64815e-10
-7.86777e-10
-8.08753e-10
-8.30728e-10
-8.52702e-10
-8.74668e-10
-8.96652e-10
-9.18622e-10
-9.406e-10
-9.6257e-10
-9.84543e-10
-1.00652e-09
-1.02851e-09
-1.05044e-09
-1.07245e-09
-1.09444e-09
-1.1164e-09
-1.13835e-09
-1.16033e-09
-1.18233e-09
-1.20433e-09
-1.22634e-09
-1.24833e-09
-1.27036e-09
-1.29241e-09
-1.31445e-09
-1.33659e-09
-1.35877e-09
-1.38106e-09
-1.40348e-09
-1.4261e-09
-1.44898e-09
-1.47227e-09
-1.49612e-09
-1.52077e-09
-1.54654e-09
-1.57391e-09
-1.60351e-09
-1.63624e-09
-1.67323e-09
-1.71612e-09
-1.767e-09
-1.82853e-09
-1.90398e-09
-1.99662e-09
-2.10529e-09
-2.24465e-09
-2.45885e-09
1.06046e-10
-2.51653e-11
-3.7935e-11
-5.98895e-11
-8.25898e-11
-1.05092e-10
-1.27331e-10
-1.4948e-10
-1.71549e-10
-1.93546e-10
-2.15556e-10
-2.37515e-10
-2.59457e-10
-2.81451e-10
-3.0342e-10
-3.25361e-10
-3.47345e-10
-3.69298e-10
-3.91293e-10
-4.1325e-10
-4.35202e-10
-4.57173e-10
-4.7914e-10
-5.01134e-10
-5.23121e-10
-5.45086e-10
-5.6706e-10
-5.89024e-10
-6.11001e-10
-6.32978e-10
-6.54945e-10
-6.76913e-10
-6.98873e-10
-7.20858e-10
-7.42857e-10
-7.64819e-10
-7.86779e-10
-8.08752e-10
-8.30721e-10
-8.52688e-10
-8.74669e-10
-8.96627e-10
-9.18619e-10
-9.40576e-10
-9.62569e-10
-9.8454e-10
-1.00652e-09
-1.02848e-09
-1.05049e-09
-1.07245e-09
-1.09441e-09
-1.11638e-09
-1.13838e-09
-1.16037e-09
-1.18234e-09
-1.20431e-09
-1.22631e-09
-1.24833e-09
-1.27033e-09
-1.29237e-09
-1.31447e-09
-1.33657e-09
-1.35876e-09
-1.38104e-09
-1.40345e-09
-1.42605e-09
-1.44895e-09
-1.47222e-09
-1.49607e-09
-1.5207e-09
-1.54648e-09
-1.57382e-09
-1.60342e-09
-1.63611e-09
-1.67313e-09
-1.71603e-09
-1.7669e-09
-1.82844e-09
-1.90393e-09
-1.99622e-09
-2.10251e-09
-2.24708e-09
-2.45935e-09
1.04463e-10
-2.51289e-11
-3.7922e-11
-5.98737e-11
-8.259e-11
-1.05056e-10
-1.27344e-10
-1.49486e-10
-1.71547e-10
-1.93567e-10
-2.15528e-10
-2.37515e-10
-2.5949e-10
-2.81427e-10
-3.034e-10
-3.25379e-10
-3.47318e-10
-3.69302e-10
-3.9126e-10
-4.13232e-10
-4.35231e-10
-4.57202e-10
-4.79174e-10
-5.01132e-10
-5.23096e-10
-5.45067e-10
-5.67047e-10
-5.8903e-10
-6.10992e-10
-6.32961e-10
-6.54944e-10
-6.76922e-10
-6.98906e-10
-7.20875e-10
-7.42813e-10
-7.64813e-10
-7.86778e-10
-8.08755e-10
-8.30732e-10
-8.52707e-10
-8.7467e-10
-8.96652e-10
-9.18617e-10
-9.40597e-10
-9.62569e-10
-9.84536e-10
-1.00653e-09
-1.0285e-09
-1.05044e-09
-1.07243e-09
-1.09442e-09
-1.1164e-09
-1.13835e-09
-1.16033e-09
-1.18232e-09
-1.20432e-09
-1.22631e-09
-1.2483e-09
-1.27034e-09
-1.29238e-09
-1.31443e-09
-1.33656e-09
-1.35874e-09
-1.38102e-09
-1.40343e-09
-1.42602e-09
-1.44889e-09
-1.47216e-09
-1.49598e-09
-1.5206e-09
-1.54634e-09
-1.57367e-09
-1.60322e-09
-1.63588e-09
-1.67283e-09
-1.71564e-09
-1.76644e-09
-1.82789e-09
-1.90327e-09
-1.99536e-09
-2.10155e-09
-2.24672e-09
-2.45883e-09
1.05078e-10
-2.20876e-11
-3.74605e-11
-5.98575e-11
-8.25861e-11
-1.05084e-10
-1.27319e-10
-1.49491e-10
-1.71541e-10
-1.93533e-10
-2.15555e-10
-2.37514e-10
-2.59462e-10
-2.81459e-10
-3.03405e-10
-3.25372e-10
-3.47332e-10
-3.69311e-10
-3.91296e-10
-4.13258e-10
-4.35205e-10
-4.57178e-10
-4.79152e-10
-5.01134e-10
-5.23103e-10
-5.45087e-10
-5.67063e-10
-5.8902e-10
-6.1101e-10
-6.32984e-10
-6.54947e-10
-6.76915e-10
-6.98883e-10
-7.20851e-10
-7.42865e-10
-7.64809e-10
-7.8678e-10
-8.08754e-10
-8.30727e-10
-8.52683e-10
-8.74674e-10
-8.96647e-10
-9.18618e-10
-9.4059e-10
-9.62569e-10
-9.84547e-10
-1.00651e-09
-1.02849e-09
-1.05048e-09
-1.07246e-09
-1.09441e-09
-1.11639e-09
-1.13838e-09
-1.16035e-09
-1.18233e-09
-1.20431e-09
-1.22631e-09
-1.24831e-09
-1.27032e-09
-1.29236e-09
-1.31444e-09
-1.33654e-09
-1.35872e-09
-1.38098e-09
-1.40338e-09
-1.42597e-09
-1.44883e-09
-1.47208e-09
-1.49588e-09
-1.52046e-09
-1.54616e-09
-1.57344e-09
-1.60292e-09
-1.63548e-09
-1.67233e-09
-1.71501e-09
-1.76561e-09
-1.82685e-09
-1.90198e-09
-1.99434e-09
-2.10305e-09
-2.24418e-09
-2.45718e-09
1.08593e-10
-2.82448e-11
-3.87861e-11
-5.99225e-11
-8.25681e-11
-1.05032e-10
-1.27337e-10
-1.4945e-10
-1.7154e-10
-1.93558e-10
-2.15521e-10
-2.37517e-10
-2.59488e-10
-2.81415e-10
-3.03405e-10
-3.25365e-10
-3.4733e-10
-3.69289e-10
-3.91257e-10
-4.1323e-10
-4.35223e-10
-4.57187e-10
-4.79165e-10
-5.01131e-10
-5.23105e-10
-5.45075e-10
-5.67039e-10
-5.89027e-10
-6.10987e-10
-6.32958e-10
-6.54943e-10
-6.76915e-10
-6.98891e-10
-7.20878e-10
-7.42815e-10
-7.64805e-10
-7.86798e-10
-8.08754e-10
-8.30733e-10
-8.52705e-10
-8.74672e-10
-8.96649e-10
-9.1862e-10
-9.40596e-10
-9.62568e-10
-9.84546e-10
-1.00652e-09
-1.02849e-09
-1.05045e-09
-1.07242e-09
-1.09442e-09
-1.11638e-09
-1.13834e-09
-1.16033e-09
-1.18231e-09
-1.20431e-09
-1.22629e-09
-1.24829e-09
-1.27031e-09
-1.29234e-09
-1.31439e-09
-1.33651e-09
-1.35869e-09
-1.38095e-09
-1.40334e-09
-1.42591e-09
-1.44876e-09
-1.47198e-09
-1.49574e-09
-1.52029e-09
-1.54594e-09
-1.57314e-09
-1.60252e-09
-1.63496e-09
-1.67165e-09
-1.71409e-09
-1.76445e-09
-1.82537e-09
-1.90005e-09
-1.99076e-09
-2.09318e-09
-2.23675e-09
-2.45525e-09
1.20132e-10
-2.27921e-11
-3.80547e-11
-5.98516e-11
-8.25314e-11
-1.05041e-10
-1.27303e-10
-1.49461e-10
-1.71533e-10
-1.93535e-10
-2.15548e-10
-2.37507e-10
-2.59463e-10
-2.81455e-10
-3.03403e-10
-3.25377e-10
-3.47331e-10
-3.69318e-10
-3.91297e-10
-4.13261e-10
-4.35211e-10
-4.57189e-10
-4.79158e-10
-5.01131e-10
-5.23106e-10
-5.45078e-10
-5.67067e-10
-5.89026e-10
-6.1101e-10
-6.32985e-10
-6.54952e-10
-6.76919e-10
-6.98902e-10
-7.20851e-10
-7.42858e-10
-7.64827e-10
-7.86772e-10
-8.08764e-10
-8.30743e-10
-8.52702e-10
-8.74685e-10
-8.96651e-10
-9.18639e-10
-9.40596e-10
-9.62583e-10
-9.84543e-10
-1.00652e-09
-1.0285e-09
-1.05046e-09
-1.07246e-09
-1.09441e-09
-1.11639e-09
-1.13838e-09
-1.16034e-09
-1.18232e-09
-1.2043e-09
-1.2263e-09
-1.2483e-09
-1.2703e-09
-1.29234e-09
-1.31441e-09
-1.3365e-09
-1.35867e-09
-1.38091e-09
-1.40329e-09
-1.42585e-09
-1.44867e-09
-1.47187e-09
-1.49559e-09
-1.52013e-09
-1.54566e-09
-1.57277e-09
-1.60204e-09
-1.6343e-09
-1.67079e-09
-1.71297e-09
-1.76296e-09
-1.82345e-09
-1.89761e-09
-1.98811e-09
-2.09416e-09
-2.22204e-09
-2.45668e-09
1.45275e-10
-2.99946e-11
-4.04546e-11
-5.98512e-11
-8.24668e-11
-1.04983e-10
-1.27282e-10
-1.49432e-10
-1.71512e-10
-1.93535e-10
-2.15515e-10
-2.37508e-10
-2.59474e-10
-2.81415e-10
-3.034e-10
-3.25363e-10
-3.47328e-10
-3.69292e-10
-3.91256e-10
-4.13231e-10
-4.35215e-10
-4.57183e-10
-4.79154e-10
-5.01134e-10
-5.23101e-10
-5.45079e-10
-5.6704e-10
-5.89022e-10
-6.10993e-10
-6.3296e-10
-6.54933e-10
-6.76913e-10
-6.98885e-10
-7.20875e-10
-7.42825e-10
-7.64799e-10
-7.86792e-10
-8.08759e-10
-8.30724e-10
-8.52712e-10
-8.7468e-10
-8.96648e-10
-9.18625e-10
-9.40596e-10
-9.62564e-10
-9.84544e-10
-1.00652e-09
-1.02848e-09
-1.05046e-09
-1.07242e-09
-1.09441e-09
-1.11637e-09
-1.13834e-09
-1.16033e-09
-1.18231e-09
-1.2043e-09
-1.22628e-09
-1.24827e-09
-1.27029e-09
-1.29231e-09
-1.31437e-09
-1.33647e-09
-1.35863e-09
-1.38087e-09
-1.40324e-09
-1.42577e-09
-1.44857e-09
-1.47173e-09
-1.49542e-09
-1.51979e-09
-1.54535e-09
-1.57234e-09
-1.60145e-09
-1.63352e-09
-1.66967e-09
-1.71156e-09
-1.76118e-09
-1.82108e-09
-1.89456e-09
-1.98137e-09
-2.08524e-09
-2.19875e-09
-1.30973e-11
-4.02918e-11
-5.95956e-11
-8.23702e-11
-1.04954e-10
-1.27263e-10
-1.49425e-10
-1.71508e-10
-1.93531e-10
-2.15528e-10
-2.37499e-10
-2.59466e-10
-2.81448e-10
-3.03399e-10
-3.25371e-10
-3.47341e-10
-3.69309e-10
-3.91285e-10
-4.13255e-10
-4.3522e-10
-4.5719e-10
-4.79165e-10
-5.01131e-10
-5.23111e-10
-5.45078e-10
-5.67064e-10
-5.8903e-10
-6.11001e-10
-6.32981e-10
-6.54957e-10
-6.76921e-10
-6.98896e-10
-7.2086e-10
-7.42851e-10
-7.64824e-10
-7.86783e-10
-8.08762e-10
-8.30746e-10
-8.52711e-10
-8.74687e-10
-8.96664e-10
-9.18634e-10
-9.40604e-10
-9.62583e-10
-9.84544e-10
-1.00652e-09
-1.0285e-09
-1.05046e-09
-1.07244e-09
-1.09441e-09
-1.11639e-09
-1.13838e-09
-1.16033e-09
-1.18231e-09
-1.20429e-09
-1.22628e-09
-1.24829e-09
-1.27028e-09
-1.29232e-09
-1.31436e-09
-1.33646e-09
-1.3586e-09
-1.38084e-09
-1.40319e-09
-1.42571e-09
-1.44848e-09
-1.47162e-09
-1.49524e-09
-1.51966e-09
-1.54502e-09
-1.57189e-09
-1.60084e-09
-1.63268e-09
-1.66854e-09
-1.71008e-09
-1.75921e-09
-1.8185e-09
-1.89147e-09
-1.97692e-09
-2.09737e-09
-1.27059e-13
-3.95182e-11
-5.92308e-11
-8.21976e-11
-1.04848e-10
-1.27196e-10
-1.49385e-10
-1.71477e-10
-1.93509e-10
-2.15505e-10
-2.37495e-10
-2.59466e-10
-2.81412e-10
-3.03394e-10
-3.25367e-10
-3.47324e-10
-3.693e-10
-3.91264e-10
-4.13238e-10
-4.35209e-10
-4.57186e-10
-4.7915e-10
-5.01137e-10
-5.23103e-10
-5.45077e-10
-5.67046e-10
-5.89021e-10
-6.11002e-10
-6.32964e-10
-6.54929e-10
-6.76921e-10
-6.98885e-10
-7.20866e-10
-7.42832e-10
-7.64805e-10
-7.86784e-10
-8.08763e-10
-8.30727e-10
-8.5271e-10
-8.74679e-10
-8.96648e-10
-9.18627e-10
-9.40593e-10
-9.62561e-10
-9.8454e-10
-1.00652e-09
-1.02848e-09
-1.05046e-09
-1.07243e-09
-1.09441e-09
-1.11637e-09
-1.13834e-09
-1.16033e-09
-1.1823e-09
-1.20429e-09
-1.22627e-09
-1.24825e-09
-1.27027e-09
-1.29228e-09
-1.31434e-09
-1.33641e-09
-1.35855e-09
-1.38077e-09
-1.40312e-09
-1.4256e-09
-1.44835e-09
-1.47143e-09
-1.49502e-09
-1.5193e-09
-1.54459e-09
-1.57131e-09
-1.60004e-09
-1.63162e-09
-1.66714e-09
-1.70818e-09
-1.75643e-09
-1.81511e-09
-1.88716e-09
-1.97044e-09
-2.10486e-09
-1.586e-11
-3.17395e-11
-5.71347e-11
-8.13545e-11
-1.04433e-10
-1.26976e-10
-1.49254e-10
-1.71384e-10
-1.93456e-10
-2.15476e-10
-2.3747e-10
-2.59451e-10
-2.8142e-10
-3.03399e-10
-3.2536e-10
-3.47328e-10
-3.69302e-10
-3.91272e-10
-4.13241e-10
-4.35211e-10
-4.57191e-10
-4.79161e-10
-5.01123e-10
-5.23107e-10
-5.45076e-10
-5.67057e-10
-5.89029e-10
-6.10998e-10
-6.32964e-10
-6.54949e-10
-6.7692e-10
-6.98892e-10
-7.20857e-10
-7.42843e-10
-7.64817e-10
-7.86786e-10
-8.08756e-10
-8.30728e-10
-8.52707e-10
-8.74683e-10
-8.96651e-10
-9.18624e-10
-9.40602e-10
-9.62569e-10
-9.84553e-10
-1.00652e-09
-1.0285e-09
-1.05048e-09
-1.07245e-09
-1.09443e-09
-1.11641e-09
-1.13839e-09
-1.16037e-09
-1.18235e-09
-1.20435e-09
-1.22635e-09
-1.24836e-09
-1.27038e-09
-1.29243e-09
-1.31451e-09
-1.33664e-09
-1.35881e-09
-1.38107e-09
-1.40345e-09
-1.42601e-09
-1.44879e-09
-1.4719e-09
-1.4955e-09
-1.51977e-09
-1.54495e-09
-1.57148e-09
-1.59987e-09
-1.63081e-09
-1.66522e-09
-1.70478e-09
-1.75132e-09
-1.80793e-09
-1.87822e-09
-1.96576e-09
-2.06751e-09
1.45348e-10
-2.32139e-11
-3.34579e-11
-5.77582e-11
-8.16215e-11
-1.04582e-10
-1.27063e-10
-1.49314e-10
-1.71426e-10
-1.9348e-10
-2.15498e-10
-2.37479e-10
-2.59455e-10
-2.81438e-10
-3.03393e-10
-3.25372e-10
-3.47347e-10
-3.69305e-10
-3.91274e-10
-4.13252e-10
-4.35222e-10
-4.57185e-10
-4.79163e-10
-5.01146e-10
-5.23114e-10
-5.45088e-10
-5.67057e-10
-5.8903e-10
-6.11008e-10
-6.32992e-10
-6.54949e-10
-6.76924e-10
-6.98901e-10
-7.20877e-10
-7.42844e-10
-7.64808e-10
-7.86788e-10
-8.08774e-10
-8.30739e-10
-8.52708e-10
-8.7469e-10
-8.96662e-10
-9.1863e-10
-9.40601e-10
-9.62576e-10
-9.8456e-10
-1.00654e-09
-1.0285e-09
-1.05048e-09
-1.07245e-09
-1.09445e-09
-1.11641e-09
-1.13839e-09
-1.16037e-09
-1.18237e-09
-1.20436e-09
-1.22635e-09
-1.24836e-09
-1.2704e-09
-1.29245e-09
-1.31452e-09
-1.33664e-09
-1.35882e-09
-1.38109e-09
-1.40349e-09
-1.42605e-09
-1.44887e-09
-1.47202e-09
-1.49567e-09
-1.52003e-09
-1.54535e-09
-1.57201e-09
-1.60062e-09
-1.63195e-09
-1.66719e-09
-1.7072e-09
-1.75447e-09
-1.8118e-09
-1.88277e-09
-1.97108e-09
-2.06709e-09
-2.15818e-09
1.31727e-10
-1.20226e-11
-3.41493e-11
-5.81869e-11
-8.18033e-11
-1.04662e-10
-1.27106e-10
-1.4932e-10
-1.71435e-10
-1.93487e-10
-2.1549e-10
-2.37494e-10
-2.59459e-10
-2.81418e-10
-3.0341e-10
-3.25364e-10
-3.4732e-10
-3.69303e-10
-3.91275e-10
-4.13239e-10
-4.35215e-10
-4.57196e-10
-4.7916e-10
-5.01123e-10
-5.23107e-10
-5.45075e-10
-5.67059e-10
-5.89029e-10
-6.10995e-10
-6.3296e-10
-6.54952e-10
-6.76925e-10
-6.98882e-10
-7.20862e-10
-7.42839e-10
-7.64826e-10
-7.86795e-10
-8.08739e-10
-8.30733e-10
-8.52713e-10
-8.7468e-10
-8.96643e-10
-9.18631e-10
-9.40605e-10
-9.62575e-10
-9.84546e-10
-1.00652e-09
-1.0285e-09
-1.05048e-09
-1.07246e-09
-1.09441e-09
-1.11641e-09
-1.13838e-09
-1.16037e-09
-1.18235e-09
-1.20435e-09
-1.22636e-09
-1.24836e-09
-1.27037e-09
-1.29242e-09
-1.3145e-09
-1.33665e-09
-1.35883e-09
-1.38109e-09
-1.4035e-09
-1.42608e-09
-1.4489e-09
-1.4721e-09
-1.49579e-09
-1.52019e-09
-1.54559e-09
-1.57244e-09
-1.60125e-09
-1.63281e-09
-1.6684e-09
-1.7091e-09
-1.75712e-09
-1.81529e-09
-1.88712e-09
-1.97639e-09
-2.08546e-09
-2.16817e-09
-2.3856e-09
1.50422e-10
-1.35402e-11
-3.51023e-11
-5.86186e-11
-8.19845e-11
-1.04745e-10
-1.27159e-10
-1.49367e-10
-1.71457e-10
-1.935e-10
-2.15508e-10
-2.37497e-10
-2.59466e-10
-2.81427e-10
-3.03393e-10
-3.2538e-10
-3.47351e-10
-3.69303e-10
-3.91278e-10
-4.13257e-10
-4.35221e-10
-4.5717e-10
-4.79159e-10
-5.01157e-10
-5.23113e-10
-5.45084e-10
-5.67056e-10
-5.8902e-10
-6.11014e-10
-6.32993e-10
-6.54944e-10
-6.76927e-10
-6.989e-10
-7.20879e-10
-7.42842e-10
-7.64808e-10
-7.86778e-10
-8.08786e-10
-8.30744e-10
-8.52694e-10
-8.7469e-10
-8.96665e-10
-9.18623e-10
-9.40605e-10
-9.62571e-10
-9.8456e-10
-1.00653e-09
-1.02851e-09
-1.05047e-09
-1.07244e-09
-1.09444e-09
-1.1164e-09
-1.13839e-09
-1.16036e-09
-1.18236e-09
-1.20435e-09
-1.22635e-09
-1.24836e-09
-1.2704e-09
-1.29245e-09
-1.31452e-09
-1.33662e-09
-1.35882e-09
-1.38111e-09
-1.40351e-09
-1.42612e-09
-1.44896e-09
-1.47216e-09
-1.49591e-09
-1.52037e-09
-1.5459e-09
-1.57283e-09
-1.60183e-09
-1.63374e-09
-1.66968e-09
-1.71088e-09
-1.75955e-09
-1.81847e-09
-1.89105e-09
-1.98086e-09
-2.08966e-09
-2.12286e-09
-2.41146e-09
1.06793e-10
-9.35784e-12
-3.54357e-11
-5.89959e-11
-8.21707e-11
-1.04838e-10
-1.27211e-10
-1.4941e-10
-1.71478e-10
-1.93526e-10
-2.15525e-10
-2.37508e-10
-2.59466e-10
-2.81443e-10
-3.03412e-10
-3.25369e-10
-3.47322e-10
-3.69304e-10
-3.91282e-10
-4.13246e-10
-4.35216e-10
-4.5721e-10
-4.79161e-10
-5.01124e-10
-5.2312e-10
-5.4508e-10
-5.67059e-10
-5.89029e-10
-6.10998e-10
-6.3297e-10
-6.54955e-10
-6.76922e-10
-6.98899e-10
-7.20863e-10
-7.42839e-10
-7.64823e-10
-7.86806e-10
-8.0875e-10
-8.30739e-10
-8.5272e-10
-8.74687e-10
-8.96647e-10
-9.1864e-10
-9.40605e-10
-9.62574e-10
-9.84555e-10
-1.00653e-09
-1.02849e-09
-1.05048e-09
-1.07245e-09
-1.09442e-09
-1.11642e-09
-1.13838e-09
-1.16037e-09
-1.18235e-09
-1.20436e-09
-1.22635e-09
-1.24835e-09
-1.27037e-09
-1.29243e-09
-1.3145e-09
-1.33665e-09
-1.35884e-09
-1.38111e-09
-1.40354e-09
-1.42612e-09
-1.44897e-09
-1.47223e-09
-1.49599e-09
-1.52052e-09
-1.54607e-09
-1.57318e-09
-1.60232e-09
-1.63441e-09
-1.67042e-09
-1.71205e-09
-1.76139e-09
-1.82112e-09
-1.89455e-09
-1.98574e-09
-2.09891e-09
-2.1716e-09
-2.41396e-09
8.85345e-11
-1.24997e-11
-3.69243e-11
-5.95098e-11
-8.24007e-11
-1.04969e-10
-1.27322e-10
-1.49454e-10
-1.71545e-10
-1.93551e-10
-2.15545e-10
-2.37543e-10
-2.59493e-10
-2.81431e-10
-3.03414e-10
-3.25375e-10
-3.47363e-10
-3.69323e-10
-3.91285e-10
-4.13255e-10
-4.35228e-10
-4.57167e-10
-4.7919e-10
-5.01171e-10
-5.23105e-10
-5.45086e-10
-5.67068e-10
-5.89024e-10
-6.11028e-10
-6.32991e-10
-6.54957e-10
-6.76927e-10
-6.98917e-10
-7.20885e-10
-7.42845e-10
-7.64809e-10
-7.86803e-10
-8.08785e-10
-8.30752e-10
-8.52706e-10
-8.74712e-10
-8.96673e-10
-9.18623e-10
-9.40623e-10
-9.62585e-10
-9.84566e-10
-1.00654e-09
-1.02852e-09
-1.05047e-09
-1.07246e-09
-1.09443e-09
-1.11641e-09
-1.13839e-09
-1.16037e-09
-1.18237e-09
-1.20434e-09
-1.22636e-09
-1.24837e-09
-1.27039e-09
-1.29244e-09
-1.31452e-09
-1.33663e-09
-1.35883e-09
-1.38111e-09
-1.40352e-09
-1.42615e-09
-1.44901e-09
-1.47228e-09
-1.49606e-09
-1.52063e-09
-1.5463e-09
-1.57343e-09
-1.60276e-09
-1.63505e-09
-1.67141e-09
-1.71344e-09
-1.76327e-09
-1.82348e-09
-1.89742e-09
-1.98854e-09
-2.10342e-09
-2.22446e-09
-2.41448e-09
8.00278e-11
-1.60822e-11
-3.80139e-11
-5.98244e-11
-8.25569e-11
-1.05046e-10
-1.27358e-10
-1.4948e-10
-1.7155e-10
-1.93567e-10
-2.15557e-10
-2.37514e-10
-2.59486e-10
-2.81459e-10
-3.0342e-10
-3.25378e-10
-3.47329e-10
-3.69303e-10
-3.91285e-10
-4.13248e-10
-4.35211e-10
-4.57206e-10
-4.79144e-10
-5.01122e-10
-5.23132e-10
-5.45081e-10
-5.67053e-10
-5.89035e-10
-6.10991e-10
-6.3298e-10
-6.54952e-10
-6.76929e-10
-6.98888e-10
-7.20864e-10
-7.42845e-10
-7.6482e-10
-7.86795e-10
-8.08769e-10
-8.30748e-10
-8.52705e-10
-8.74689e-10
-8.96664e-10
-9.18638e-10
-9.40614e-10
-9.62558e-10
-9.84555e-10
-1.00652e-09
-1.0285e-09
-1.05049e-09
-1.07244e-09
-1.09442e-09
-1.11641e-09
-1.13839e-09
-1.16037e-09
-1.18234e-09
-1.20435e-09
-1.22632e-09
-1.24833e-09
-1.27037e-09
-1.29242e-09
-1.3145e-09
-1.33663e-09
-1.35882e-09
-1.3811e-09
-1.40352e-09
-1.42612e-09
-1.44902e-09
-1.47227e-09
-1.4961e-09
-1.5207e-09
-1.5464e-09
-1.57364e-09
-1.60307e-09
-1.63549e-09
-1.67209e-09
-1.71443e-09
-1.7646e-09
-1.82527e-09
-1.89956e-09
-1.99037e-09
-2.10407e-09
-2.2443e-09
-2.41694e-09
5.19433e-11
-1.46068e-11
-3.73936e-11
-5.99618e-11
-8.26397e-11
-1.05113e-10
-1.27388e-10
-1.49509e-10
-1.71567e-10
-1.93582e-10
-2.15566e-10
-2.37541e-10
-2.59511e-10
-2.81453e-10
-3.03409e-10
-3.25389e-10
-3.47356e-10
-3.69331e-10
-3.91286e-10
-4.13252e-10
-4.35223e-10
-4.57195e-10
-4.79193e-10
-5.01157e-10
-5.23097e-10
-5.45088e-10
-5.67066e-10
-5.89027e-10
-6.1103e-10
-6.32983e-10
-6.54965e-10
-6.76918e-10
-6.98919e-10
-7.20883e-10
-7.42838e-10
-7.6482e-10
-7.86805e-10
-8.08765e-10
-8.30742e-10
-8.5272e-10
-8.74688e-10
-8.96658e-10
-9.18626e-10
-9.40615e-10
-9.62586e-10
-9.84564e-10
-1.00654e-09
-1.02851e-09
-1.05046e-09
-1.07246e-09
-1.09444e-09
-1.11641e-09
-1.13838e-09
-1.16036e-09
-1.18235e-09
-1.20435e-09
-1.22636e-09
-1.24836e-09
-1.27038e-09
-1.29242e-09
-1.31448e-09
-1.33662e-09
-1.35882e-09
-1.3811e-09
-1.40352e-09
-1.42615e-09
-1.449e-09
-1.47233e-09
-1.49612e-09
-1.52076e-09
-1.54647e-09
-1.57379e-09
-1.60328e-09
-1.63582e-09
-1.67258e-09
-1.71517e-09
-1.76561e-09
-1.8266e-09
-1.90134e-09
-1.99346e-09
-2.10814e-09
-2.28946e-09
-2.42292e-09
4.96556e-11
-1.76899e-11
-3.82793e-11
-6.01029e-11
-8.27127e-11
-1.0515e-10
-1.27418e-10
-1.49508e-10
-1.71578e-10
-1.93584e-10
-2.15575e-10
-2.37507e-10
-2.59498e-10
-2.81456e-10
-3.03444e-10
-3.25366e-10
-3.47359e-10
-3.69296e-10
-3.91279e-10
-4.13256e-10
-4.3522e-10
-4.57187e-10
-4.7915e-10
-5.01129e-10
-5.23133e-10
-5.45088e-10
-5.67044e-10
-5.89038e-10
-6.10993e-10
-6.32984e-10
-6.54953e-10
-6.76932e-10
-6.98884e-10
-7.20871e-10
-7.42858e-10
-7.64801e-10
-7.86798e-10
-8.08762e-10
-8.30739e-10
-8.52712e-10
-8.74685e-10
-8.96654e-10
-9.1863e-10
-9.40614e-10
-9.62577e-10
-9.84556e-10
-1.00651e-09
-1.02849e-09
-1.0505e-09
-1.07245e-09
-1.09441e-09
-1.11639e-09
-1.1384e-09
-1.16037e-09
-1.18235e-09
-1.20433e-09
-1.22631e-09
-1.24831e-09
-1.27036e-09
-1.29241e-09
-1.3145e-09
-1.33661e-09
-1.3588e-09
-1.38108e-09
-1.40349e-09
-1.4261e-09
-1.44901e-09
-1.47226e-09
-1.49613e-09
-1.52074e-09
-1.54651e-09
-1.57383e-09
-1.60339e-09
-1.63601e-09
-1.67288e-09
-1.71561e-09
-1.76626e-09
-1.82747e-09
-1.90243e-09
-1.99414e-09
-2.10779e-09
-2.29073e-09
-2.42713e-09
4.8718e-11
-1.57179e-11
-3.75611e-11
-6.01026e-11
-8.27588e-11
-1.05175e-10
-1.27418e-10
-1.49553e-10
-1.71574e-10
-1.93595e-10
-2.1555e-10
-2.37551e-10
-2.59514e-10
-2.81454e-10
-3.03396e-10
-3.25393e-10
-3.4735e-10
-3.69334e-10
-3.91275e-10
-4.13248e-10
-4.35219e-10
-4.57218e-10
-4.79184e-10
-5.01139e-10
-5.23101e-10
-5.4507e-10
-5.67079e-10
-5.8903e-10
-6.11022e-10
-6.32978e-10
-6.54955e-10
-6.76919e-10
-6.98921e-10
-7.20883e-10
-7.42833e-10
-7.64813e-10
-7.86798e-10
-8.0876e-10
-8.30736e-10
-8.52707e-10
-8.74683e-10
-8.96652e-10
-9.18629e-10
-9.40606e-10
-9.62567e-10
-9.84553e-10
-1.00653e-09
-1.02852e-09
-1.05046e-09
-1.07244e-09
-1.09444e-09
-1.11641e-09
-1.13837e-09
-1.16035e-09
-1.18232e-09
-1.20434e-09
-1.22636e-09
-1.24834e-09
-1.27036e-09
-1.2924e-09
-1.31445e-09
-1.3366e-09
-1.35878e-09
-1.38107e-09
-1.40348e-09
-1.42611e-09
-1.44896e-09
-1.47227e-09
-1.49608e-09
-1.52073e-09
-1.54646e-09
-1.57383e-09
-1.60339e-09
-1.63606e-09
-1.67298e-09
-1.71579e-09
-1.76651e-09
-1.82787e-09
-1.90301e-09
-1.99561e-09
-2.11016e-09
-2.29277e-09
-2.42989e-09
4.78239e-11
-1.69247e-11
-3.7984e-11
-6.01636e-11
-8.2766e-11
-1.05197e-10
-1.27437e-10
-1.49513e-10
-1.71585e-10
-1.93595e-10
-2.15581e-10
-2.37522e-10
-2.59499e-10
-2.81461e-10
-3.03444e-10
-3.25362e-10
-3.47371e-10
-3.69294e-10
-3.9129e-10
-4.13263e-10
-4.35218e-10
-4.57172e-10
-4.79152e-10
-5.01151e-10
-5.2313e-10
-5.45103e-10
-5.67039e-10
-5.89039e-10
-6.11008e-10
-6.32988e-10
-6.54958e-10
-6.76929e-10
-6.98883e-10
-7.20865e-10
-7.42859e-10
-7.64805e-10
-7.86807e-10
-8.08752e-10
-8.30732e-10
-8.52705e-10
-8.74683e-10
-8.96644e-10
-9.18626e-10
-9.40605e-10
-9.62578e-10
-9.8455e-10
-1.00652e-09
-1.02849e-09
-1.0505e-09
-1.07246e-09
-1.0944e-09
-1.1164e-09
-1.1384e-09
-1.16037e-09
-1.18236e-09
-1.20432e-09
-1.22629e-09
-1.24831e-09
-1.27035e-09
-1.29239e-09
-1.31448e-09
-1.33657e-09
-1.35876e-09
-1.38104e-09
-1.40345e-09
-1.42605e-09
-1.44894e-09
-1.4722e-09
-1.49604e-09
-1.52064e-09
-1.5464e-09
-1.57374e-09
-1.60332e-09
-1.63593e-09
-1.67288e-09
-1.71568e-09
-1.76645e-09
-1.82777e-09
-1.90293e-09
-1.99525e-09
-2.10954e-09
-2.29277e-09
-2.43089e-09
4.77906e-11
-1.6925e-11
-3.79853e-11
-6.01501e-11
-8.27724e-11
-1.05186e-10
-1.27434e-10
-1.49549e-10
-1.71581e-10
-1.93593e-10
-2.15557e-10
-2.37539e-10
-2.59518e-10
-2.81451e-10
-3.03394e-10
-3.25378e-10
-3.47354e-10
-3.69327e-10
-3.91255e-10
-4.1324e-10
-4.35228e-10
-4.57227e-10
-4.79182e-10
-5.01129e-10
-5.23106e-10
-5.45067e-10
-5.67073e-10
-5.89033e-10
-6.11003e-10
-6.32974e-10
-6.54941e-10
-6.76927e-10
-6.98912e-10
-7.20865e-10
-7.42843e-10
-7.64825e-10
-7.86776e-10
-8.08761e-10
-8.30729e-10
-8.52711e-10
-8.74673e-10
-8.96658e-10
-9.18623e-10
-9.40607e-10
-9.62573e-10
-9.84552e-10
-1.00652e-09
-1.02851e-09
-1.05046e-09
-1.07243e-09
-1.09444e-09
-1.1164e-09
-1.13837e-09
-1.16035e-09
-1.18231e-09
-1.20433e-09
-1.22634e-09
-1.24832e-09
-1.27034e-09
-1.29237e-09
-1.31442e-09
-1.33657e-09
-1.35874e-09
-1.38102e-09
-1.40342e-09
-1.42603e-09
-1.44887e-09
-1.47215e-09
-1.49594e-09
-1.52055e-09
-1.54627e-09
-1.57356e-09
-1.6031e-09
-1.63569e-09
-1.67257e-09
-1.71529e-09
-1.76593e-09
-1.82721e-09
-1.90226e-09
-1.99439e-09
-2.10864e-09
-2.29185e-09
-2.43014e-09
4.86964e-11
-1.58845e-11
-3.76015e-11
-6.01153e-11
-8.27459e-11
-1.05187e-10
-1.27413e-10
-1.49535e-10
-1.7156e-10
-1.93589e-10
-2.15573e-10
-2.37532e-10
-2.59499e-10
-2.81475e-10
-3.03424e-10
-3.25368e-10
-3.47371e-10
-3.69307e-10
-3.91285e-10
-4.13266e-10
-4.35215e-10
-4.57175e-10
-4.79152e-10
-5.0115e-10
-5.23127e-10
-5.45102e-10
-5.67047e-10
-5.89034e-10
-6.11001e-10
-6.32991e-10
-6.54973e-10
-6.76929e-10
-6.9889e-10
-7.20863e-10
-7.42841e-10
-7.64817e-10
-7.86819e-10
-8.08758e-10
-8.30728e-10
-8.52699e-10
-8.74683e-10
-8.96657e-10
-9.18626e-10
-9.40605e-10
-9.62573e-10
-9.84554e-10
-1.00652e-09
-1.02849e-09
-1.05049e-09
-1.07247e-09
-1.09441e-09
-1.11639e-09
-1.1384e-09
-1.16036e-09
-1.18235e-09
-1.20432e-09
-1.22628e-09
-1.24832e-09
-1.27033e-09
-1.29237e-09
-1.31446e-09
-1.33654e-09
-1.35872e-09
-1.38097e-09
-1.40338e-09
-1.42596e-09
-1.44883e-09
-1.47205e-09
-1.49583e-09
-1.52041e-09
-1.5461e-09
-1.57334e-09
-1.60279e-09
-1.63528e-09
-1.67206e-09
-1.71462e-09
-1.76511e-09
-1.82615e-09
-1.90098e-09
-1.99323e-09
-2.10777e-09
-2.29008e-09
-2.42816e-09
4.96126e-11
-1.76203e-11
-3.82799e-11
-6.00994e-11
-8.27046e-11
-1.05145e-10
-1.27405e-10
-1.4952e-10
-1.71567e-10
-1.93578e-10
-2.15572e-10
-2.37519e-10
-2.59504e-10
-2.8144e-10
-3.03402e-10
-3.25368e-10
-3.47349e-10
-3.69318e-10
-3.91257e-10
-4.13237e-10
-4.35223e-10
-4.57215e-10
-4.79176e-10
-5.01132e-10
-5.231e-10
-5.45072e-10
-5.67064e-10
-5.89038e-10
-6.11012e-10
-6.32971e-10
-6.54923e-10
-6.7693e-10
-6.98896e-10
-7.20891e-10
-7.42838e-10
-7.6482e-10
-7.86789e-10
-8.08762e-10
-8.30727e-10
-8.52719e-10
-8.7468e-10