/*--------------------------------*- C++ -*----------------------------------*\
| =========                 |                                                 |
| \\      /  F ield         | OpenFOAM: The Open Source CFD Toolbox           |
|  \\    /   O peration     | Version:  v1906                                 |
|   \\  /    A nd           | Web:      www.OpenFOAM.com                      |
|    \\/     M anipulation  |                                                 |
\*---------------------------------------------------------------------------*/
FoamFile
{
    version     2.0;
    format      ascii;
    class       volScalarField;
    location    "62.5";
    object      p;
}
// * * * * * * * * * * * * * * * * * * * * * * * * * * * * * * * * * * * * * //

dimensions      [0 2 -2 0 0 0 0];


internalField   nonuniform List<scalar> 
243374
(
-1.86435e-13
-3.95201e-11
-5.93402e-11
-8.23273e-11
-1.04974e-10
-1.27304e-10
-1.49478e-10
-1.71541e-10
-1.93558e-10
-2.1553e-10
-2.37481e-10
-2.59432e-10
-2.81377e-10
-3.03314e-10
-3.25253e-10
-3.47188e-10
-3.69133e-10
-3.91078e-10
-4.13014e-10
-4.34965e-10
-4.56919e-10
-4.78851e-10
-5.00793e-10
-5.2275e-10
-5.44689e-10
-5.66637e-10
-5.88585e-10
-6.10524e-10
-6.32472e-10
-6.54422e-10
-6.76369e-10
-6.98311e-10
-7.20259e-10
-7.42207e-10
-7.64155e-10
-7.86102e-10
-8.0804e-10
-8.29993e-10
-8.51943e-10
-8.73883e-10
-8.95828e-10
-9.17783e-10
-9.39723e-10
-9.61672e-10
-9.83618e-10
-1.00557e-09
-1.02752e-09
-1.04947e-09
-1.07142e-09
-1.09337e-09
-1.11534e-09
-1.13729e-09
-1.15926e-09
-1.18123e-09
-1.20322e-09
-1.22521e-09
-1.24723e-09
-1.26928e-09
-1.29136e-09
-1.31351e-09
-1.33573e-09
-1.35806e-09
-1.38054e-09
-1.40324e-09
-1.42624e-09
-1.44968e-09
-1.47371e-09
-1.49861e-09
-1.5247e-09
-1.55251e-09
-1.58267e-09
-1.6161e-09
-1.65411e-09
-1.69844e-09
-1.75135e-09
-1.81589e-09
-1.89585e-09
-1.99598e-09
-2.11483e-09
-2.29918e-09
-1.26705e-11
-4.04001e-11
-5.97113e-11
-8.2495e-11
-1.05066e-10
-1.27367e-10
-1.49522e-10
-1.71576e-10
-1.9357e-10
-2.15544e-10
-2.37498e-10
-2.59441e-10
-2.81377e-10
-3.03316e-10
-3.25257e-10
-3.472e-10
-3.69145e-10
-3.9108e-10
-4.13031e-10
-4.34969e-10
-4.56911e-10
-4.78872e-10
-5.00812e-10
-5.22743e-10
-5.44698e-10
-5.66643e-10
-5.88587e-10
-6.10536e-10
-6.3248e-10
-6.54425e-10
-6.76373e-10
-6.98322e-10
-7.20265e-10
-7.42211e-10
-7.64162e-10
-7.86104e-10
-8.08056e-10
-8.29997e-10
-8.51944e-10
-8.73893e-10
-8.95838e-10
-9.17784e-10
-9.39731e-10
-9.61683e-10
-9.8362e-10
-1.00558e-09
-1.02753e-09
-1.04947e-09
-1.07143e-09
-1.09338e-09
-1.11533e-09
-1.13729e-09
-1.15926e-09
-1.18124e-09
-1.20322e-09
-1.22522e-09
-1.24724e-09
-1.26928e-09
-1.29137e-09
-1.31351e-09
-1.33572e-09
-1.35806e-09
-1.38054e-09
-1.40326e-09
-1.42626e-09
-1.44972e-09
-1.4738e-09
-1.49873e-09
-1.5249e-09
-1.55279e-09
-1.58308e-09
-1.6167e-09
-1.65501e-09
-1.69969e-09
-1.75313e-09
-1.81853e-09
-1.89924e-09
-2.00053e-09
-2.12216e-09
-2.29215e-09
-2.98615e-11
-4.05986e-11
-5.99638e-11
-8.25888e-11
-1.05108e-10
-1.27384e-10
-1.49519e-10
-1.71575e-10
-1.93579e-10
-2.15544e-10
-2.37488e-10
-2.59435e-10
-2.81378e-10
-3.03317e-10
-3.25252e-10
-3.47192e-10
-3.69127e-10
-3.9108e-10
-4.13015e-10
-4.34963e-10
-4.56916e-10
-4.78839e-10
-5.00791e-10
-5.22757e-10
-5.4469e-10
-5.66635e-10
-5.88586e-10
-6.10523e-10
-6.32472e-10
-6.54417e-10
-6.76362e-10
-6.98308e-10
-7.20263e-10
-7.42211e-10
-7.64148e-10
-7.86098e-10
-8.08038e-10
-8.29992e-10
-8.51943e-10
-8.73881e-10
-8.95833e-10
-9.17782e-10
-9.39724e-10
-9.61665e-10
-9.83623e-10
-1.00556e-09
-1.02751e-09
-1.04947e-09
-1.07141e-09
-1.09336e-09
-1.11533e-09
-1.13729e-09
-1.15926e-09
-1.18123e-09
-1.20321e-09
-1.2252e-09
-1.24722e-09
-1.26926e-09
-1.29135e-09
-1.3135e-09
-1.33572e-09
-1.35805e-09
-1.38054e-09
-1.40324e-09
-1.42626e-09
-1.44974e-09
-1.47382e-09
-1.4988e-09
-1.525e-09
-1.55295e-09
-1.58335e-09
-1.6171e-09
-1.6556e-09
-1.70056e-09
-1.75437e-09
-1.82016e-09
-1.90153e-09
-2.0033e-09
-2.12652e-09
-2.27915e-09
1.25227e-10
-2.38297e-11
-3.82535e-11
-5.99829e-11
-8.26458e-11
-1.05147e-10
-1.27406e-10
-1.49567e-10
-1.7159e-10
-1.9358e-10
-2.15549e-10
-2.37506e-10
-2.59442e-10
-2.81381e-10
-3.03311e-10
-3.25258e-10
-3.47194e-10
-3.69148e-10
-3.91074e-10
-4.13031e-10
-4.34977e-10
-4.5691e-10
-4.78874e-10
-5.00808e-10
-5.22732e-10
-5.44693e-10
-5.6664e-10
-5.88587e-10
-6.10538e-10
-6.32477e-10
-6.54428e-10
-6.76378e-10
-6.98323e-10
-7.20257e-10
-7.42202e-10
-7.64167e-10
-7.86097e-10
-8.08054e-10
-8.29993e-10
-8.51934e-10
-8.73882e-10
-8.95833e-10
-9.17779e-10
-9.39725e-10
-9.61686e-10
-9.83614e-10
-1.00557e-09
-1.02753e-09
-1.04946e-09
-1.07143e-09
-1.09338e-09
-1.11533e-09
-1.13728e-09
-1.15924e-09
-1.18123e-09
-1.20321e-09
-1.22522e-09
-1.24722e-09
-1.26928e-09
-1.29136e-09
-1.31348e-09
-1.33571e-09
-1.35804e-09
-1.38052e-09
-1.40324e-09
-1.42627e-09
-1.44974e-09
-1.47385e-09
-1.49883e-09
-1.52508e-09
-1.55309e-09
-1.58355e-09
-1.61741e-09
-1.65612e-09
-1.70126e-09
-1.75534e-09
-1.82148e-09
-1.90338e-09
-2.00583e-09
-2.13289e-09
-2.28381e-09
-2.44206e-09
1.149e-10
-2.86559e-11
-3.88941e-11
-6.00353e-11
-8.26859e-11
-1.05173e-10
-1.27424e-10
-1.4954e-10
-1.71599e-10
-1.93589e-10
-2.15553e-10
-2.37499e-10
-2.59432e-10
-2.81375e-10
-3.03325e-10
-3.25252e-10
-3.47201e-10
-3.69126e-10
-3.91085e-10
-4.13015e-10
-4.34955e-10
-4.56904e-10
-4.78835e-10
-5.00798e-10
-5.22762e-10
-5.44693e-10
-5.66641e-10
-5.88583e-10
-6.10522e-10
-6.32476e-10
-6.54417e-10
-6.76362e-10
-6.98303e-10
-7.20261e-10
-7.42218e-10
-7.64146e-10
-7.86104e-10
-8.08043e-10
-8.29984e-10
-8.51934e-10
-8.73884e-10
-8.95826e-10
-9.17774e-10
-9.39719e-10
-9.61664e-10
-9.83624e-10
-1.00557e-09
-1.0275e-09
-1.04948e-09
-1.07141e-09
-1.09336e-09
-1.11532e-09
-1.13729e-09
-1.15926e-09
-1.18122e-09
-1.20319e-09
-1.22518e-09
-1.24721e-09
-1.26924e-09
-1.29133e-09
-1.31349e-09
-1.33569e-09
-1.35803e-09
-1.38051e-09
-1.40321e-09
-1.42624e-09
-1.44973e-09
-1.47382e-09
-1.49884e-09
-1.52509e-09
-1.55313e-09
-1.58364e-09
-1.61762e-09
-1.65629e-09
-1.70167e-09
-1.75596e-09
-1.8223e-09
-1.90454e-09
-2.00741e-09
-2.13464e-09
-2.2842e-09
-2.46491e-09
-2.74832e-09
1.10374e-10
-2.31225e-11
-3.76345e-11
-5.99642e-11
-8.27088e-11
-1.05172e-10
-1.27436e-10
-1.4958e-10
-1.71598e-10
-1.9359e-10
-2.15551e-10
-2.37502e-10
-2.59447e-10
-2.81379e-10
-3.03307e-10
-3.25263e-10
-3.47184e-10
-3.69145e-10
-3.9107e-10
-4.13024e-10
-4.34978e-10
-4.56918e-10
-4.78875e-10
-5.00803e-10
-5.22729e-10
-5.44692e-10
-5.66635e-10
-5.88584e-10
-6.10533e-10
-6.32473e-10
-6.54422e-10
-6.76375e-10
-6.98329e-10
-7.20262e-10
-7.42193e-10
-7.64156e-10
-7.86092e-10
-8.08041e-10
-8.29988e-10
-8.51935e-10
-8.73874e-10
-8.9583e-10
-9.17774e-10
-9.39726e-10
-9.6167e-10
-9.83616e-10
-1.00557e-09
-1.02752e-09
-1.04945e-09
-1.07142e-09
-1.09338e-09
-1.11533e-09
-1.13727e-09
-1.15923e-09
-1.18121e-09
-1.2032e-09
-1.2252e-09
-1.24721e-09
-1.26925e-09
-1.29134e-09
-1.31345e-09
-1.33568e-09
-1.358e-09
-1.38048e-09
-1.40319e-09
-1.42622e-09
-1.44969e-09
-1.4738e-09
-1.49879e-09
-1.52506e-09
-1.5531e-09
-1.58363e-09
-1.61762e-09
-1.65641e-09
-1.7018e-09
-1.75617e-09
-1.82263e-09
-1.90503e-09
-2.00819e-09
-2.13705e-09
-2.29229e-09
-2.47482e-09
-2.75121e-09
1.05839e-10
-2.57619e-11
-3.80792e-11
-6.00162e-11
-8.27136e-11
-1.05204e-10
-1.27436e-10
-1.49562e-10
-1.71605e-10
-1.93586e-10
-2.15562e-10
-2.37502e-10
-2.59428e-10
-2.81384e-10
-3.03327e-10
-3.2525e-10
-3.47199e-10
-3.69132e-10
-3.91091e-10
-4.13025e-10
-4.34956e-10
-4.569e-10
-4.7884e-10
-5.008e-10
-5.22756e-10
-5.44697e-10
-5.66642e-10
-5.88582e-10
-6.1053e-10
-6.3248e-10
-6.54421e-10
-6.76362e-10
-6.983e-10
-7.20254e-10
-7.42222e-10
-7.64157e-10
-7.86095e-10
-8.08039e-10
-8.29982e-10
-8.51922e-10
-8.73876e-10
-8.95808e-10
-9.17772e-10
-9.39705e-10
-9.61668e-10
-9.83614e-10
-1.00556e-09
-1.0275e-09
-1.04948e-09
-1.07142e-09
-1.09336e-09
-1.11531e-09
-1.13729e-09
-1.15925e-09
-1.18121e-09
-1.20318e-09
-1.22517e-09
-1.2472e-09
-1.26923e-09
-1.2913e-09
-1.31345e-09
-1.33565e-09
-1.35798e-09
-1.38045e-09
-1.40315e-09
-1.42616e-09
-1.44964e-09
-1.47372e-09
-1.49872e-09
-1.52496e-09
-1.55299e-09
-1.5835e-09
-1.61748e-09
-1.65624e-09
-1.70163e-09
-1.75599e-09
-1.82243e-09
-1.90483e-09
-2.00801e-09
-2.13662e-09
-2.28941e-09
-2.47745e-09
-2.75326e-09
1.04353e-10
-2.5716e-11
-3.80671e-11
-6.00014e-11
-8.27135e-11
-1.05174e-10
-1.27445e-10
-1.49566e-10
-1.71604e-10
-1.93599e-10
-2.15545e-10
-2.37502e-10
-2.59448e-10
-2.81369e-10
-3.03311e-10
-3.25261e-10
-3.47185e-10
-3.69135e-10
-3.91068e-10
-4.13012e-10
-4.34975e-10
-4.56919e-10
-4.78864e-10
-5.008e-10
-5.22736e-10
-5.44684e-10
-5.66634e-10
-5.88586e-10
-6.10523e-10
-6.32468e-10
-6.5442e-10
-6.76371e-10
-6.98324e-10
-7.20267e-10
-7.42188e-10
-7.64153e-10
-7.86093e-10
-8.08042e-10
-8.29991e-10
-8.51941e-10
-8.73876e-10
-8.9583e-10
-9.1777e-10
-9.39723e-10
-9.61667e-10
-9.83611e-10
-1.00557e-09
-1.02752e-09
-1.04944e-09
-1.0714e-09
-1.09337e-09
-1.11532e-09
-1.13726e-09
-1.15922e-09
-1.1812e-09
-1.20319e-09
-1.22518e-09
-1.24718e-09
-1.26922e-09
-1.2913e-09
-1.31342e-09
-1.33563e-09
-1.35795e-09
-1.38042e-09
-1.40311e-09
-1.42611e-09
-1.44956e-09
-1.47363e-09
-1.4986e-09
-1.52482e-09
-1.5528e-09
-1.58327e-09
-1.61718e-09
-1.65588e-09
-1.70116e-09
-1.75539e-09
-1.82169e-09
-1.90393e-09
-2.00691e-09
-2.13528e-09
-2.28775e-09
-2.47672e-09
-2.75263e-09
1.05101e-10
-2.3338e-11
-3.76996e-11
-5.99858e-11
-8.27084e-11
-1.05198e-10
-1.27426e-10
-1.49567e-10
-1.716e-10
-1.93577e-10
-2.1556e-10
-2.375e-10
-2.59431e-10
-2.81388e-10
-3.03318e-10
-3.25256e-10
-3.47192e-10
-3.6914e-10
-3.91093e-10
-4.13031e-10
-4.34958e-10
-4.56902e-10
-4.78849e-10
-5.00801e-10
-5.22746e-10
-5.44697e-10
-5.66645e-10
-5.8858e-10
-6.10536e-10
-6.32484e-10
-6.54423e-10
-6.76365e-10
-6.98308e-10
-7.2025e-10
-7.42224e-10
-7.64151e-10
-7.86095e-10
-8.08041e-10
-8.29986e-10
-8.51918e-10
-8.73879e-10
-8.95825e-10
-9.1777e-10
-9.39716e-10
-9.61666e-10
-9.83618e-10
-1.00556e-09
-1.02751e-09
-1.04947e-09
-1.07142e-09
-1.09336e-09
-1.11531e-09
-1.13728e-09
-1.15924e-09
-1.1812e-09
-1.20317e-09
-1.22517e-09
-1.24718e-09
-1.26921e-09
-1.29128e-09
-1.31341e-09
-1.33561e-09
-1.35792e-09
-1.38037e-09
-1.40305e-09
-1.42604e-09
-1.44947e-09
-1.47352e-09
-1.49845e-09
-1.52461e-09
-1.55254e-09
-1.58292e-09
-1.61673e-09
-1.65529e-09
-1.70038e-09
-1.7544e-09
-1.82041e-09
-1.9023e-09
-2.00487e-09
-2.13293e-09
-2.28805e-09
-2.4728e-09
-2.74904e-09
1.08362e-10
-2.85787e-11
-3.88887e-11
-6.00483e-11
-8.26893e-11
-1.05149e-10
-1.27433e-10
-1.49538e-10
-1.71596e-10
-1.93591e-10
-2.15539e-10
-2.37502e-10
-2.59445e-10
-2.81361e-10
-3.03317e-10
-3.25253e-10
-3.4719e-10
-3.69126e-10
-3.91066e-10
-4.1301e-10
-4.34969e-10
-4.56911e-10
-4.78857e-10
-5.00799e-10
-5.22746e-10
-5.44688e-10
-5.66628e-10
-5.88584e-10
-6.10521e-10
-6.32465e-10
-6.54416e-10
-6.76365e-10
-6.98313e-10
-7.20267e-10
-7.4219e-10
-7.64146e-10
-7.86108e-10
-8.08042e-10
-8.29991e-10
-8.51937e-10
-8.73876e-10
-8.95828e-10
-9.17771e-10
-9.3972e-10
-9.61665e-10
-9.83616e-10
-1.00557e-09
-1.02751e-09
-1.04945e-09
-1.07139e-09
-1.09336e-09
-1.11531e-09
-1.13725e-09
-1.15922e-09
-1.18119e-09
-1.20317e-09
-1.22516e-09
-1.24716e-09
-1.26919e-09
-1.29126e-09
-1.31337e-09
-1.33557e-09
-1.35787e-09
-1.38033e-09
-1.40299e-09
-1.42596e-09
-1.44936e-09
-1.47337e-09
-1.49825e-09
-1.52435e-09
-1.5522e-09
-1.58248e-09
-1.61613e-09
-1.6545e-09
-1.69935e-09
-1.75301e-09
-1.81863e-09
-1.90002e-09
-2.00191e-09
-2.12819e-09
-2.27648e-09
-2.46432e-09
-2.74351e-09
1.19462e-10
-2.40006e-11
-3.82859e-11
-5.99761e-11
-8.26508e-11
-1.05152e-10
-1.27403e-10
-1.49542e-10
-1.71589e-10
-1.93574e-10
-2.15554e-10
-2.37494e-10
-2.59431e-10
-2.81387e-10
-3.03315e-10
-3.25259e-10
-3.47192e-10
-3.69144e-10
-3.91094e-10
-4.13033e-10
-4.34962e-10
-4.5691e-10
-4.78855e-10
-5.00799e-10
-5.22747e-10
-5.44692e-10
-5.66648e-10
-5.88584e-10
-6.10537e-10
-6.32485e-10
-6.54428e-10
-6.76368e-10
-6.98319e-10
-7.20251e-10
-7.42219e-10
-7.64163e-10
-7.86089e-10
-8.08049e-10
-8.29999e-10
-8.51934e-10
-8.73887e-10
-8.95829e-10
-9.17786e-10
-9.3972e-10
-9.61676e-10
-9.83614e-10
-1.00556e-09
-1.02751e-09
-1.04946e-09
-1.07142e-09
-1.09336e-09
-1.11532e-09
-1.13728e-09
-1.15923e-09
-1.18119e-09
-1.20316e-09
-1.22515e-09
-1.24716e-09
-1.26918e-09
-1.29125e-09
-1.31337e-09
-1.33555e-09
-1.35784e-09
-1.38027e-09
-1.40292e-09
-1.42586e-09
-1.44923e-09
-1.47321e-09
-1.49803e-09
-1.52408e-09
-1.55179e-09
-1.58192e-09
-1.6154e-09
-1.65351e-09
-1.69804e-09
-1.75127e-09
-1.81636e-09
-1.8971e-09
-1.99818e-09
-2.12369e-09
-2.27346e-09
-2.44504e-09
-2.74135e-09
1.46338e-10
-2.9979e-11
-4.06126e-11
-5.99789e-11
-8.25846e-11
-1.05091e-10
-1.2738e-10
-1.49513e-10
-1.7157e-10
-1.93571e-10
-2.15531e-10
-2.37494e-10
-2.59435e-10
-2.8136e-10
-3.03312e-10
-3.2525e-10
-3.47187e-10
-3.69127e-10
-3.91065e-10
-4.13011e-10
-4.34964e-10
-4.56906e-10
-4.78849e-10
-5.00801e-10
-5.22743e-10
-5.44692e-10
-5.66629e-10
-5.88581e-10
-6.10525e-10
-6.32466e-10
-6.54412e-10
-6.76363e-10
-6.9831e-10
-7.20266e-10
-7.42196e-10
-7.64142e-10
-7.86103e-10
-8.08045e-10
-8.29982e-10
-8.51942e-10
-8.73882e-10
-8.95826e-10
-9.17773e-10
-9.39719e-10
-9.61661e-10
-9.83614e-10
-1.00556e-09
-1.0275e-09
-1.04945e-09
-1.07139e-09
-1.09336e-09
-1.1153e-09
-1.13725e-09
-1.15922e-09
-1.18118e-09
-1.20316e-09
-1.22514e-09
-1.24713e-09
-1.26916e-09
-1.29121e-09
-1.31332e-09
-1.3355e-09
-1.35778e-09
-1.38021e-09
-1.40284e-09
-1.42576e-09
-1.44909e-09
-1.47301e-09
-1.49777e-09
-1.52371e-09
-1.55132e-09
-1.58128e-09
-1.61453e-09
-1.65233e-09
-1.69644e-09
-1.74914e-09
-1.81359e-09
-1.8935e-09
-1.99357e-09
-2.11488e-09
-2.26549e-09
-2.41407e-09
-1.28064e-11
-4.04359e-11
-5.97178e-11
-8.2489e-11
-1.05063e-10
-1.27358e-10
-1.49505e-10
-1.71565e-10
-1.93566e-10
-2.15539e-10
-2.37487e-10
-2.5943e-10
-2.81381e-10
-3.03312e-10
-3.25256e-10
-3.47197e-10
-3.69139e-10
-3.91086e-10
-4.13029e-10
-4.34968e-10
-4.56911e-10
-4.78859e-10
-5.00799e-10
-5.22749e-10
-5.44691e-10
-5.66646e-10
-5.88586e-10
-6.10531e-10
-6.32482e-10
-6.5443e-10
-6.7637e-10
-6.98315e-10
-7.20256e-10
-7.42215e-10
-7.6416e-10
-7.86096e-10
-8.08047e-10
-8.30001e-10
-8.5194e-10
-8.73888e-10
-8.95837e-10
-9.17781e-10
-9.39725e-10
-9.61675e-10
-9.83614e-10
-1.00556e-09
-1.02751e-09
-1.04946e-09
-1.07141e-09
-1.09335e-09
-1.11531e-09
-1.13727e-09
-1.15922e-09
-1.18118e-09
-1.20315e-09
-1.22513e-09
-1.24714e-09
-1.26915e-09
-1.29121e-09
-1.31331e-09
-1.33548e-09
-1.35774e-09
-1.38016e-09
-1.40276e-09
-1.42565e-09
-1.44894e-09
-1.47283e-09
-1.4975e-09
-1.52336e-09
-1.55081e-09
-1.58059e-09
-1.61359e-09
-1.65105e-09
-1.69471e-09
-1.74685e-09
-1.81064e-09
-1.8896e-09
-1.98895e-09
-2.1081e-09
-2.27559e-09
-4.5446e-13
-3.95562e-11
-5.93531e-11
-8.23202e-11
-1.04959e-10
-1.27294e-10
-1.49465e-10
-1.71536e-10
-1.93546e-10
-2.15519e-10
-2.37483e-10
-2.59428e-10
-2.81356e-10
-3.03308e-10
-3.25251e-10
-3.47185e-10
-3.69132e-10
-3.91071e-10
-4.13017e-10
-4.3496e-10
-4.56909e-10
-4.78847e-10
-5.00803e-10
-5.22745e-10
-5.44691e-10
-5.66633e-10
-5.88581e-10
-6.10532e-10
-6.32469e-10
-6.5441e-10
-6.76369e-10
-6.9831e-10
-7.20261e-10
-7.42201e-10
-7.64146e-10
-7.86098e-10
-8.08047e-10
-8.29986e-10
-8.5194e-10
-8.73883e-10
-8.95826e-10
-9.17776e-10
-9.39717e-10
-9.61659e-10
-9.83611e-10
-1.00556e-09
-1.0275e-09
-1.04945e-09
-1.0714e-09
-1.09335e-09
-1.1153e-09
-1.13725e-09
-1.15921e-09
-1.18117e-09
-1.20314e-09
-1.22512e-09
-1.24711e-09
-1.26912e-09
-1.29117e-09
-1.31328e-09
-1.33542e-09
-1.35768e-09
-1.38006e-09
-1.40266e-09
-1.4255e-09
-1.44876e-09
-1.47255e-09
-1.49716e-09
-1.52286e-09
-1.55018e-09
-1.57972e-09
-1.61239e-09
-1.64942e-09
-1.69249e-09
-1.74406e-09
-1.8068e-09
-1.88406e-09
-1.98147e-09
-2.09815e-09
-2.27999e-09
-1.63912e-11
-3.17992e-11
-5.72358e-11
-8.14612e-11
-1.04541e-10
-1.2707e-10
-1.49331e-10
-1.71446e-10
-1.93493e-10
-2.1549e-10
-2.37459e-10
-2.59415e-10
-2.81358e-10
-3.03309e-10
-3.25246e-10
-3.47188e-10
-3.69133e-10
-3.91076e-10
-4.13017e-10
-4.34961e-10
-4.56912e-10
-4.78856e-10
-5.00793e-10
-5.22746e-10
-5.44688e-10
-5.66641e-10
-5.88585e-10
-6.10526e-10
-6.32469e-10
-6.54424e-10
-6.76368e-10
-6.98314e-10
-7.20253e-10
-7.42209e-10
-7.64156e-10
-7.861e-10
-8.08043e-10
-8.29989e-10
-8.51939e-10
-8.73887e-10
-8.95831e-10
-9.17778e-10
-9.39727e-10
-9.61671e-10
-9.83625e-10
-1.00557e-09
-1.02752e-09
-1.04947e-09
-1.07143e-09
-1.09338e-09
-1.11534e-09
-1.1373e-09
-1.15927e-09
-1.18124e-09
-1.20323e-09
-1.22523e-09
-1.24725e-09
-1.26929e-09
-1.29137e-09
-1.31351e-09
-1.33572e-09
-1.35802e-09
-1.38046e-09
-1.4031e-09
-1.42602e-09
-1.44931e-09
-1.47315e-09
-1.49773e-09
-1.52344e-09
-1.55057e-09
-1.57979e-09
-1.61193e-09
-1.64814e-09
-1.68991e-09
-1.73954e-09
-1.79956e-09
-1.87473e-09
-1.96995e-09
-2.09077e-09
-2.23625e-09
1.44454e-10
-2.3227e-11
-3.35854e-11
-5.78741e-11
-8.1733e-11
-1.04688e-10
-1.27157e-10
-1.4939e-10
-1.71486e-10
-1.93517e-10
-2.1551e-10
-2.37468e-10
-2.59419e-10
-2.81373e-10
-3.03307e-10
-3.25255e-10
-3.47202e-10
-3.69136e-10
-3.91078e-10
-4.13028e-10
-4.3497e-10
-4.56908e-10
-4.78857e-10
-5.0081e-10
-5.22751e-10
-5.44699e-10
-5.6664e-10
-5.88586e-10
-6.10537e-10
-6.32488e-10
-6.54423e-10
-6.76372e-10
-6.9832e-10
-7.2027e-10
-7.42209e-10
-7.64149e-10
-7.861e-10
-8.08057e-10
-8.29997e-10
-8.5194e-10
-8.73894e-10
-8.9584e-10
-9.17781e-10
-9.39727e-10
-9.61675e-10
-9.8363e-10
-1.00558e-09
-1.02752e-09
-1.04947e-09
-1.07143e-09
-1.09339e-09
-1.11534e-09
-1.1373e-09
-1.15927e-09
-1.18125e-09
-1.20323e-09
-1.22523e-09
-1.24725e-09
-1.2693e-09
-1.29139e-09
-1.31352e-09
-1.33572e-09
-1.35803e-09
-1.38049e-09
-1.40315e-09
-1.4261e-09
-1.44945e-09
-1.47333e-09
-1.49802e-09
-1.52382e-09
-1.55114e-09
-1.58062e-09
-1.61311e-09
-1.64981e-09
-1.69233e-09
-1.7429e-09
-1.8044e-09
-1.88075e-09
-1.977e-09
-2.09916e-09
-2.23915e-09
-2.36163e-09
1.30322e-10
-1.30873e-11
-3.4275e-11
-5.8298e-11
-8.19151e-11
-1.04768e-10
-1.272e-10
-1.49401e-10
-1.71497e-10
-1.93526e-10
-2.15506e-10
-2.37479e-10
-2.59422e-10
-2.8136e-10
-3.03318e-10
-3.25249e-10
-3.47183e-10
-3.69135e-10
-3.91079e-10
-4.13015e-10
-4.34964e-10
-4.56916e-10
-4.78855e-10
-5.00792e-10
-5.22747e-10
-5.44687e-10
-5.66643e-10
-5.88585e-10
-6.10524e-10
-6.32467e-10
-6.54426e-10
-6.76372e-10
-6.98308e-10
-7.20256e-10
-7.42207e-10
-7.64162e-10
-7.86106e-10
-8.08031e-10
-8.29991e-10
-8.51944e-10
-8.73885e-10
-8.95824e-10
-9.17782e-10
-9.39729e-10
-9.61674e-10
-9.8362e-10
-1.00557e-09
-1.02752e-09
-1.04947e-09
-1.07143e-09
-1.09337e-09
-1.11534e-09
-1.1373e-09
-1.15927e-09
-1.18124e-09
-1.20322e-09
-1.22523e-09
-1.24725e-09
-1.26928e-09
-1.29137e-09
-1.31351e-09
-1.33574e-09
-1.35805e-09
-1.38051e-09
-1.40318e-09
-1.42615e-09
-1.44951e-09
-1.47347e-09
-1.49821e-09
-1.5241e-09
-1.55155e-09
-1.58129e-09
-1.6141e-09
-1.6512e-09
-1.6943e-09
-1.74553e-09
-1.80807e-09
-1.88582e-09
-1.98347e-09
-2.1071e-09
-2.25985e-09
-2.37625e-09
-2.63077e-09
1.45947e-10
-1.36858e-11
-3.52295e-11
-5.87292e-11
-8.20982e-11
-1.04855e-10
-1.27256e-10
-1.49446e-10
-1.7152e-10
-1.93539e-10
-2.15522e-10
-2.37485e-10
-2.5943e-10
-2.81367e-10
-3.03307e-10
-3.25262e-10
-3.47205e-10
-3.69135e-10
-3.91081e-10
-4.13032e-10
-4.3497e-10
-4.56898e-10
-4.78855e-10
-5.00818e-10
-5.22751e-10
-5.44697e-10
-5.66639e-10
-5.88579e-10
-6.10543e-10
-6.3249e-10
-6.54421e-10
-6.76374e-10
-6.98321e-10
-7.20271e-10
-7.42208e-10
-7.64151e-10
-7.86095e-10
-8.08066e-10
-8.3e-10
-8.51931e-10
-8.73895e-10
-8.95842e-10
-9.17777e-10
-9.39729e-10
-9.61672e-10
-9.8363e-10
-1.00558e-09
-1.02753e-09
-1.04947e-09
-1.07142e-09
-1.09339e-09
-1.11533e-09
-1.1373e-09
-1.15926e-09
-1.18125e-09
-1.20322e-09
-1.22523e-09
-1.24724e-09
-1.2693e-09
-1.29139e-09
-1.31352e-09
-1.33572e-09
-1.35805e-09
-1.38053e-09
-1.40321e-09
-1.4262e-09
-1.4496e-09
-1.47358e-09
-1.49841e-09
-1.5244e-09
-1.55202e-09
-1.5819e-09
-1.61499e-09
-1.65252e-09
-1.69617e-09
-1.74816e-09
-1.81163e-09
-1.8905e-09
-1.98935e-09
-2.11391e-09
-2.2676e-09
-2.33206e-09
-2.66449e-09
1.04682e-10
-9.53621e-12
-3.54614e-11
-5.91032e-11
-8.22847e-11
-1.04948e-10
-1.27307e-10
-1.49486e-10
-1.7154e-10
-1.93561e-10
-2.15536e-10
-2.37493e-10
-2.5943e-10
-2.81378e-10
-3.03321e-10
-3.25253e-10
-3.47185e-10
-3.69135e-10
-3.91084e-10
-4.13021e-10
-4.34965e-10
-4.56926e-10
-4.78856e-10
-5.00793e-10
-5.22755e-10
-5.44691e-10
-5.66642e-10
-5.88587e-10
-6.10525e-10
-6.32473e-10
-6.54428e-10
-6.7637e-10
-6.98317e-10
-7.20258e-10
-7.42207e-10
-7.6416e-10
-7.86113e-10
-8.08039e-10
-8.29996e-10
-8.51949e-10
-8.73889e-10
-8.95827e-10
-9.17789e-10
-9.39729e-10
-9.61673e-10
-9.83625e-10
-1.00557e-09
-1.02752e-09
-1.04948e-09
-1.07143e-09
-1.09337e-09
-1.11534e-09
-1.13729e-09
-1.15926e-09
-1.18123e-09
-1.20323e-09
-1.22522e-09
-1.24724e-09
-1.26928e-09
-1.29137e-09
-1.3135e-09
-1.33574e-09
-1.35806e-09
-1.38053e-09
-1.40324e-09
-1.42622e-09
-1.44964e-09
-1.47368e-09
-1.49854e-09
-1.5246e-09
-1.55233e-09
-1.58241e-09
-1.61575e-09
-1.65359e-09
-1.6977e-09
-1.7503e-09
-1.81451e-09
-1.89418e-09
-1.99445e-09
-2.12119e-09
-2.27895e-09
-2.38715e-09
-2.69168e-09
8.80113e-11
-1.22455e-11
-3.68905e-11
-5.96136e-11
-8.25133e-11
-1.05076e-10
-1.27411e-10
-1.4953e-10
-1.71597e-10
-1.93585e-10
-2.15555e-10
-2.37521e-10
-2.5945e-10
-2.81371e-10
-3.03321e-10
-3.2526e-10
-3.47214e-10
-3.6915e-10
-3.91086e-10
-4.1303e-10
-4.34974e-10
-4.56896e-10
-4.78877e-10
-5.00828e-10
-5.22746e-10
-5.44696e-10
-5.66648e-10
-5.88581e-10
-6.10553e-10
-6.32489e-10
-6.54429e-10
-6.76375e-10
-6.98334e-10
-7.20275e-10
-7.42211e-10
-7.64153e-10
-7.86111e-10
-8.08066e-10
-8.30005e-10
-8.51938e-10
-8.73909e-10
-8.95847e-10
-9.17774e-10
-9.39742e-10
-9.61683e-10
-9.83634e-10
-1.00558e-09
-1.02753e-09
-1.04946e-09
-1.07143e-09
-1.09338e-09
-1.11534e-09
-1.1373e-09
-1.15926e-09
-1.18124e-09
-1.20321e-09
-1.22523e-09
-1.24725e-09
-1.26929e-09
-1.29138e-09
-1.31351e-09
-1.33572e-09
-1.35806e-09
-1.38054e-09
-1.40324e-09
-1.42626e-09
-1.44969e-09
-1.47376e-09
-1.49867e-09
-1.52479e-09
-1.55265e-09
-1.58284e-09
-1.61637e-09
-1.65452e-09
-1.69903e-09
-1.75222e-09
-1.81725e-09
-1.89771e-09
-1.99885e-09
-2.12595e-09
-2.28706e-09
-2.44842e-09
-2.69766e-09
7.97089e-11
-1.59442e-11
-3.80615e-11
-5.99374e-11
-8.26692e-11
-1.05154e-10
-1.27448e-10
-1.49556e-10
-1.71606e-10
-1.93599e-10
-2.15565e-10
-2.37502e-10
-2.59446e-10
-2.81392e-10
-3.0333e-10
-3.25261e-10
-3.47191e-10
-3.69134e-10
-3.91086e-10
-4.13024e-10
-4.34962e-10
-4.56923e-10
-4.78844e-10
-5.00792e-10
-5.22763e-10
-5.44693e-10
-5.66637e-10
-5.8859e-10
-6.10523e-10
-6.32479e-10
-6.54427e-10
-6.76376e-10
-6.98309e-10
-7.2026e-10
-7.42211e-10
-7.64158e-10
-7.86104e-10
-8.08051e-10
-8.30002e-10
-8.51938e-10
-8.73891e-10
-8.95838e-10
-9.17787e-10
-9.39734e-10
-9.61662e-10
-9.83625e-10
-1.00557e-09
-1.02752e-09
-1.04948e-09
-1.07142e-09
-1.09338e-09
-1.11534e-09
-1.1373e-09
-1.15926e-09
-1.18122e-09
-1.20322e-09
-1.2252e-09
-1.24722e-09
-1.26927e-09
-1.29136e-09
-1.3135e-09
-1.33572e-09
-1.35805e-09
-1.38053e-09
-1.40324e-09
-1.42625e-09
-1.44972e-09
-1.47378e-09
-1.49874e-09
-1.52491e-09
-1.55284e-09
-1.58317e-09
-1.61686e-09
-1.65525e-09
-1.70007e-09
-1.75367e-09
-1.81917e-09
-1.90036e-09
-2.00196e-09
-2.12888e-09
-2.28976e-09
-2.47393e-09
-2.70502e-09
5.15881e-11
-1.45264e-11
-3.75011e-11
-6.00768e-11
-8.27575e-11
-1.0522e-10
-1.2748e-10
-1.49586e-10
-1.71623e-10
-1.93614e-10
-2.15573e-10
-2.37526e-10
-2.59466e-10
-2.81387e-10
-3.0332e-10
-3.25269e-10
-3.47212e-10
-3.69155e-10
-3.91087e-10
-4.13028e-10
-4.34972e-10
-4.56914e-10
-4.78879e-10
-5.00819e-10
-5.22743e-10
-5.44697e-10
-5.66648e-10
-5.88585e-10
-6.10553e-10
-6.32485e-10
-6.54434e-10
-6.76368e-10
-6.98335e-10
-7.20274e-10
-7.42206e-10
-7.64159e-10
-7.86113e-10
-8.08049e-10
-8.29998e-10
-8.5195e-10
-8.73891e-10
-8.95835e-10
-9.17777e-10
-9.39735e-10
-9.61685e-10
-9.83632e-10
-1.00558e-09
-1.02753e-09
-1.04946e-09
-1.07143e-09
-1.09339e-09
-1.11534e-09
-1.13729e-09
-1.15925e-09
-1.18123e-09
-1.20322e-09
-1.22523e-09
-1.24723e-09
-1.26928e-09
-1.29135e-09
-1.31348e-09
-1.33571e-09
-1.35804e-09
-1.38052e-09
-1.40323e-09
-1.42627e-09
-1.44971e-09
-1.47383e-09
-1.49878e-09
-1.525e-09
-1.55296e-09
-1.58339e-09
-1.61721e-09
-1.65576e-09
-1.70082e-09
-1.75476e-09
-1.82064e-09
-1.90229e-09
-2.00455e-09
-2.13284e-09
-2.29574e-09
-2.53294e-09
-2.71659e-09
4.94522e-11
-1.71324e-11
-3.83329e-11
-6.02263e-11
-8.28323e-11
-1.0526e-10
-1.2751e-10
-1.49588e-10
-1.71634e-10
-1.93616e-10
-2.15582e-10
-2.37499e-10
-2.59454e-10
-2.81392e-10
-3.03344e-10
-3.25254e-10
-3.47208e-10
-3.69131e-10
-3.91084e-10
-4.1303e-10
-4.34968e-10
-4.56909e-10
-4.78847e-10
-5.00798e-10
-5.22763e-10
-5.44698e-10
-5.66632e-10
-5.88592e-10
-6.10525e-10
-6.32484e-10
-6.54429e-10
-6.76377e-10
-6.98306e-10
-7.20265e-10
-7.42222e-10
-7.64146e-10
-7.86107e-10
-8.08047e-10
-8.29996e-10
-8.51943e-10
-8.73888e-10
-8.95832e-10
-9.1778e-10
-9.39735e-10
-9.61676e-10
-9.83626e-10
-1.00556e-09
-1.02751e-09
-1.04948e-09
-1.07142e-09
-1.09336e-09
-1.11532e-09
-1.1373e-09
-1.15926e-09
-1.18123e-09
-1.2032e-09
-1.22518e-09
-1.2472e-09
-1.26926e-09
-1.29134e-09
-1.31349e-09
-1.33569e-09
-1.35802e-09
-1.38051e-09
-1.40321e-09
-1.42623e-09
-1.4497e-09
-1.47378e-09
-1.49879e-09
-1.525e-09
-1.55303e-09
-1.58348e-09
-1.6174e-09
-1.65604e-09
-1.70126e-09
-1.75541e-09
-1.82156e-09
-1.90353e-09
-2.00609e-09
-2.13415e-09
-2.29607e-09
-2.53598e-09
-2.72527e-09
4.85294e-11
-1.58135e-11
-3.77177e-11
-6.02287e-11
-8.28779e-11
-1.05287e-10
-1.27514e-10
-1.49625e-10
-1.71633e-10
-1.93627e-10
-2.15565e-10
-2.37531e-10
-2.5947e-10
-2.81389e-10
-3.03314e-10
-3.25271e-10
-3.47207e-10
-3.69156e-10
-3.91079e-10
-4.13024e-10
-4.34969e-10
-4.5693e-10
-4.78875e-10
-5.00806e-10
-5.22743e-10
-5.44685e-10
-5.66655e-10
-5.88588e-10
-6.10546e-10
-6.32481e-10
-6.54427e-10
-6.76369e-10
-6.98335e-10
-7.20274e-10
-7.42201e-10
-7.64157e-10
-7.86107e-10
-8.08046e-10
-8.29994e-10
-8.51939e-10
-8.73887e-10
-8.95831e-10
-9.17779e-10
-9.39729e-10
-9.61668e-10
-9.83624e-10
-1.00557e-09
-1.02753e-09
-1.04946e-09
-1.07142e-09
-1.09339e-09
-1.11533e-09
-1.13728e-09
-1.15924e-09
-1.18121e-09
-1.20321e-09
-1.22522e-09
-1.24721e-09
-1.26925e-09
-1.29133e-09
-1.31345e-09
-1.33568e-09
-1.358e-09
-1.38048e-09
-1.40318e-09
-1.42622e-09
-1.44966e-09
-1.47377e-09
-1.49873e-09
-1.52499e-09
-1.55298e-09
-1.58348e-09
-1.61741e-09
-1.65612e-09
-1.70141e-09
-1.75564e-09
-1.82189e-09
-1.90406e-09
-2.00685e-09
-2.13573e-09
-2.2976e-09
-2.53929e-09
-2.73053e-09
4.76621e-11
-1.67289e-11
-3.80854e-11
-6.02913e-11
-8.28896e-11
-1.05308e-10
-1.27531e-10
-1.49597e-10
-1.7164e-10
-1.93627e-10
-2.15587e-10
-2.37511e-10
-2.59457e-10
-2.81397e-10
-3.03343e-10
-3.25251e-10
-3.47216e-10
-3.69131e-10
-3.91091e-10
-4.13035e-10
-4.34966e-10
-4.569e-10
-4.78849e-10
-5.00811e-10
-5.22764e-10
-5.44708e-10
-5.66629e-10
-5.88593e-10
-6.10536e-10
-6.32487e-10
-6.54435e-10
-6.76374e-10
-6.98308e-10
-7.20262e-10
-7.42223e-10
-7.64148e-10
-7.86116e-10
-8.08039e-10
-8.29991e-10
-8.51937e-10
-8.73887e-10
-8.95823e-10
-9.17776e-10
-9.39727e-10
-9.61677e-10
-9.83621e-10
-1.00557e-09
-1.02751e-09
-1.04949e-09
-1.07143e-09
-1.09336e-09
-1.11532e-09
-1.1373e-09
-1.15925e-09
-1.18123e-09
-1.20319e-09
-1.22517e-09
-1.24719e-09
-1.26924e-09
-1.29132e-09
-1.31346e-09
-1.33565e-09
-1.35797e-09
-1.38045e-09
-1.40314e-09
-1.42615e-09
-1.44961e-09
-1.47368e-09
-1.49867e-09
-1.52488e-09
-1.55288e-09
-1.58335e-09
-1.61728e-09
-1.65595e-09
-1.70123e-09
-1.75546e-09
-1.82172e-09
-1.90385e-09
-2.00662e-09
-2.13529e-09
-2.29757e-09
-2.53945e-09
-2.73238e-09
4.76323e-11
-1.67219e-11
-3.8088e-11
-6.02785e-11
-8.28952e-11
-1.05298e-10
-1.27528e-10
-1.49626e-10
-1.71637e-10
-1.93625e-10
-2.15571e-10
-2.37524e-10
-2.5947e-10
-2.81386e-10
-3.03311e-10
-3.25261e-10
-3.47208e-10
-3.69151e-10
-3.91066e-10
-4.13018e-10
-4.34973e-10
-4.56936e-10
-4.78872e-10
-5.00799e-10
-5.22744e-10
-5.44684e-10
-5.66651e-10
-5.88589e-10
-6.10535e-10
-6.32477e-10
-6.5442e-10
-6.76375e-10
-6.98328e-10
-7.20262e-10
-7.42209e-10
-7.64164e-10
-7.8609e-10
-8.08046e-10
-8.29989e-10
-8.51943e-10
-8.73878e-10
-8.95835e-10
-9.17773e-10
-9.39729e-10
-9.61672e-10
-9.83622e-10
-1.00557e-09
-1.02752e-09
-1.04946e-09
-1.0714e-09
-1.09338e-09
-1.11533e-09
-1.13727e-09
-1.15923e-09
-1.18119e-09
-1.20319e-09
-1.22519e-09
-1.24719e-09
-1.26923e-09
-1.2913e-09
-1.31341e-09
-1.33563e-09
-1.35794e-09
-1.38042e-09
-1.4031e-09
-1.4261e-09
-1.44952e-09
-1.4736e-09
-1.49854e-09
-1.52474e-09
-1.55269e-09
-1.5831e-09
-1.61697e-09
-1.65558e-09
-1.70075e-09
-1.75484e-09
-1.82095e-09
-1.90293e-09
-2.0055e-09
-2.13388e-09
-2.29597e-09
-2.53777e-09
-2.73118e-09
4.85013e-11
-1.5968e-11
-3.77565e-11
-6.02434e-11
-8.28687e-11
-1.05299e-10
-1.2751e-10
-1.49612e-10
-1.7162e-10
-1.93622e-10
-2.1558e-10
-2.37517e-10
-2.59457e-10
-2.81407e-10
-3.03331e-10
-3.25255e-10
-3.47217e-10
-3.69138e-10
-3.91088e-10
-4.13037e-10
-4.34965e-10
-4.56901e-10
-4.78851e-10
-5.00811e-10
-5.22763e-10
-5.44708e-10
-5.66635e-10
-5.88589e-10
-6.10532e-10
-6.32489e-10
-6.54442e-10
-6.76376e-10
-6.98313e-10
-7.20258e-10
-7.4221e-10
-7.64155e-10
-7.86124e-10
-8.08044e-10
-8.29989e-10
-8.51931e-10
-8.73888e-10
-8.95833e-10
-9.17776e-10
-9.39727e-10
-9.61674e-10
-9.83624e-10
-1.00556e-09
-1.02751e-09
-1.04948e-09
-1.07143e-09
-1.09336e-09
-1.11532e-09
-1.13729e-09
-1.15924e-09
-1.18122e-09
-1.20318e-09
-1.22516e-09
-1.24719e-09
-1.26921e-09
-1.29129e-09
-1.31342e-09
-1.3356e-09
-1.35791e-09
-1.38036e-09
-1.40304e-09
-1.42602e-09
-1.44944e-09
-1.47347e-09
-1.49838e-09
-1.52452e-09
-1.55241e-09
-1.58275e-09
-1.61651e-09
-1.65496e-09
-1.69996e-09
-1.7538e-09
-1.81964e-09
-1.90126e-09
-2.00346e-09
-2.13163e-09
-2.29317e-09
-2.53426e-09
-2.7274e-09
4.94021e-11
-1.70658e-11
-3.83432e-11
-6.02241e-11
-8.28267e-11
-1.05259e-10
-1.27499e-10
-1.49599e-10
-1.71624e-10
-1.93611e-10
-2.15578e-10
-2.37507e-10
-2.59459e-10
-2.81378e-10
-3.03316e-10
-3.25255e-10
-3.47204e-10
-3.69145e-10
-3.91066e-10
-4.13015e-10
-4.34969e-10
-4.56928e-10
-4.78867e-10
-5.00802e-10
-5.22743e-10
-5.44687e-10
-5.66645e-10
-5.88593e-10
-6.10539e-10
-6.32475e-10
-6.54407e-10
-6.76375e-10
-6.98317e-10
-7.20277e-10
-7.42206e-10
-7.64157e-10
-7.861e-10
-8.08048e-10
-8.29988e-10
-8.51947e-10
-8.73885e-10
-8.95834e-10