/*--------------------------------*- C++ -*----------------------------------*\
| =========                 |                                                 |
| \\      /  F ield         | OpenFOAM: The Open Source CFD Toolbox           |
|  \\    /   O peration     | Version:  v1906                                 |
|   \\  /    A nd           | Web:      www.OpenFOAM.com                      |
|    \\/     M anipulation  |                                                 |
\*---------------------------------------------------------------------------*/
FoamFile
{
    version     2.0;
    format      ascii;
    class       volScalarField;
    location    "47.5";
    object      p;
}
// * * * * * * * * * * * * * * * * * * * * * * * * * * * * * * * * * * * * * //

dimensions      [0 2 -2 0 0 0 0];


internalField   nonuniform List<scalar> 
243374
(
-1.22391e-13
-3.96455e-11
-5.93929e-11
-8.23826e-11
-1.05041e-10
-1.27381e-10
-1.49574e-10
-1.71653e-10
-1.93689e-10
-2.15682e-10
-2.37651e-10
-2.59626e-10
-2.81593e-10
-3.0355e-10
-3.25512e-10
-3.47466e-10
-3.69437e-10
-3.91405e-10
-4.13364e-10
-4.35339e-10
-4.57318e-10
-4.7927e-10
-5.01234e-10
-5.23216e-10
-5.45177e-10
-5.67147e-10
-5.89119e-10
-6.11082e-10
-6.33052e-10
-6.55025e-10
-6.76995e-10
-6.9896e-10
-7.2093e-10
-7.42901e-10
-7.64874e-10
-7.86842e-10
-8.08801e-10
-8.30778e-10
-8.52751e-10
-8.74712e-10
-8.96679e-10
-9.18658e-10
-9.40617e-10
-9.62589e-10
-9.84555e-10
-1.00653e-09
-1.02849e-09
-1.05047e-09
-1.07244e-09
-1.09441e-09
-1.11638e-09
-1.13835e-09
-1.16033e-09
-1.1823e-09
-1.20429e-09
-1.22628e-09
-1.24828e-09
-1.2703e-09
-1.29233e-09
-1.3144e-09
-1.33653e-09
-1.35871e-09
-1.38099e-09
-1.4034e-09
-1.42601e-09
-1.44889e-09
-1.47217e-09
-1.49603e-09
-1.52068e-09
-1.54645e-09
-1.57386e-09
-1.60347e-09
-1.63625e-09
-1.67329e-09
-1.71626e-09
-1.76782e-09
-1.83027e-09
-1.90707e-09
-1.99622e-09
-2.13846e-09
-1.30573e-11
-4.04341e-11
-5.97632e-11
-8.25521e-11
-1.05133e-10
-1.27445e-10
-1.49619e-10
-1.7169e-10
-1.93701e-10
-2.15696e-10
-2.37673e-10
-2.59636e-10
-2.81592e-10
-3.03553e-10
-3.25516e-10
-3.47484e-10
-3.69449e-10
-3.91408e-10
-4.13385e-10
-4.35342e-10
-4.57308e-10
-4.79296e-10
-5.01257e-10
-5.23208e-10
-5.45189e-10
-5.67157e-10
-5.89123e-10
-6.11094e-10
-6.33061e-10
-6.55028e-10
-6.77e-10
-6.98972e-10
-7.20938e-10
-7.42907e-10
-7.64881e-10
-7.86845e-10
-8.0882e-10
-8.30783e-10
-8.52753e-10
-8.74724e-10
-8.96691e-10
-9.18659e-10
-9.40628e-10
-9.62601e-10
-9.84558e-10
-1.00654e-09
-1.02851e-09
-1.05047e-09
-1.07245e-09
-1.09442e-09
-1.11638e-09
-1.13835e-09
-1.16033e-09
-1.18231e-09
-1.20429e-09
-1.22629e-09
-1.24829e-09
-1.27031e-09
-1.29234e-09
-1.31441e-09
-1.33653e-09
-1.35871e-09
-1.38099e-09
-1.40342e-09
-1.42603e-09
-1.44893e-09
-1.47224e-09
-1.49611e-09
-1.52082e-09
-1.54668e-09
-1.57415e-09
-1.60394e-09
-1.63692e-09
-1.67425e-09
-1.71778e-09
-1.76969e-09
-1.83265e-09
-1.91024e-09
-2.00149e-09
-2.12982e-09
-2.99818e-11
-4.06127e-11
-6.00065e-11
-8.26451e-11
-1.05174e-10
-1.2746e-10
-1.49612e-10
-1.71687e-10
-1.93712e-10
-2.15696e-10
-2.37659e-10
-2.59629e-10
-2.81593e-10
-3.03553e-10
-3.25511e-10
-3.47471e-10
-3.6943e-10
-3.91407e-10
-4.13363e-10
-4.35337e-10
-4.57315e-10
-4.79255e-10
-5.01232e-10
-5.23226e-10
-5.45178e-10
-5.67146e-10
-5.8912e-10
-6.11079e-10
-6.33052e-10
-6.55018e-10
-6.76986e-10
-6.98958e-10
-7.20935e-10
-7.42906e-10
-7.64865e-10
-7.86838e-10
-8.08801e-10
-8.30777e-10
-8.52752e-10
-8.7471e-10
-8.96686e-10
-9.18657e-10
-9.4062e-10
-9.62581e-10
-9.84562e-10
-1.00652e-09
-1.02849e-09
-1.05047e-09
-1.07243e-09
-1.09439e-09
-1.11638e-09
-1.13835e-09
-1.16033e-09
-1.1823e-09
-1.20428e-09
-1.22626e-09
-1.24828e-09
-1.27028e-09
-1.29232e-09
-1.3144e-09
-1.33652e-09
-1.35871e-09
-1.38099e-09
-1.4034e-09
-1.42603e-09
-1.44894e-09
-1.47225e-09
-1.49616e-09
-1.52088e-09
-1.54676e-09
-1.57435e-09
-1.60423e-09
-1.63731e-09
-1.6749e-09
-1.7187e-09
-1.77096e-09
-1.83436e-09
-1.91232e-09
-2.00475e-09
-2.11615e-09
1.26472e-10
-2.29241e-11
-3.81896e-11
-6.00284e-11
-8.26991e-11
-1.05211e-10
-1.27479e-10
-1.49666e-10
-1.71702e-10
-1.93709e-10
-2.15701e-10
-2.37685e-10
-2.59634e-10
-2.81599e-10
-3.03548e-10
-3.25516e-10
-3.47474e-10
-3.69454e-10
-3.914e-10
-4.13386e-10
-4.35353e-10
-4.57307e-10
-4.79298e-10
-5.0125e-10
-5.23195e-10
-5.45183e-10
-5.67152e-10
-5.89122e-10
-6.11097e-10
-6.33057e-10
-6.55033e-10
-6.77007e-10
-6.98969e-10
-7.20926e-10
-7.42896e-10
-7.64887e-10
-7.86836e-10
-8.08818e-10
-8.30777e-10
-8.5274e-10
-8.74711e-10
-8.96685e-10
-9.18653e-10
-9.4062e-10
-9.62608e-10
-9.8455e-10
-1.00654e-09
-1.02851e-09
-1.05045e-09
-1.07245e-09
-1.09442e-09
-1.11637e-09
-1.13834e-09
-1.16031e-09
-1.18231e-09
-1.20429e-09
-1.22629e-09
-1.24828e-09
-1.2703e-09
-1.29234e-09
-1.31439e-09
-1.33651e-09
-1.3587e-09
-1.38098e-09
-1.40342e-09
-1.42604e-09
-1.44894e-09
-1.47229e-09
-1.49619e-09
-1.52095e-09
-1.54688e-09
-1.5745e-09
-1.60446e-09
-1.63774e-09
-1.67544e-09
-1.71945e-09
-1.77197e-09
-1.83576e-09
-1.91424e-09
-2.01025e-09
-2.12281e-09
-2.24625e-09
1.15893e-10
-2.847e-11
-3.89279e-11
-6.0076e-11
-8.27378e-11
-1.05236e-10
-1.27497e-10
-1.49629e-10
-1.71713e-10
-1.93722e-10
-2.15704e-10
-2.37673e-10
-2.59624e-10
-2.81587e-10
-3.03565e-10
-3.25511e-10
-3.47487e-10
-3.69427e-10
-3.91413e-10
-4.13362e-10
-4.35325e-10
-4.57299e-10
-4.7925e-10
-5.01242e-10
-5.23234e-10
-5.45183e-10
-5.67155e-10
-5.89117e-10
-6.11077e-10
-6.33056e-10
-6.55017e-10
-6.76987e-10
-6.98951e-10
-7.20932e-10
-7.42914e-10
-7.64862e-10
-7.86844e-10
-8.08805e-10
-8.30768e-10
-8.52741e-10
-8.74713e-10
-8.96678e-10
-9.18647e-10
-9.40614e-10
-9.62582e-10
-9.84564e-10
-1.00653e-09
-1.02848e-09
-1.05048e-09
-1.07242e-09
-1.09439e-09
-1.11637e-09
-1.13836e-09
-1.16034e-09
-1.1823e-09
-1.20427e-09
-1.22625e-09
-1.24827e-09
-1.27027e-09
-1.29231e-09
-1.31441e-09
-1.33651e-09
-1.3587e-09
-1.38098e-09
-1.40339e-09
-1.42601e-09
-1.44895e-09
-1.47225e-09
-1.4962e-09
-1.52096e-09
-1.54692e-09
-1.57457e-09
-1.6046e-09
-1.63789e-09
-1.67578e-09
-1.71995e-09
-1.77264e-09
-1.83667e-09
-1.91548e-09
-2.01134e-09
-2.12094e-09
-2.26514e-09
-2.49704e-09
1.10486e-10
-2.21612e-11
-3.75725e-11
-6.00012e-11
-8.27607e-11
-1.05229e-10
-1.27508e-10
-1.4968e-10
-1.71708e-10
-1.9372e-10
-2.15702e-10
-2.37675e-10
-2.59643e-10
-2.81597e-10
-3.03541e-10
-3.25526e-10
-3.4746e-10
-3.69452e-10
-3.91394e-10
-4.13376e-10
-4.35356e-10
-4.57317e-10
-4.79299e-10
-5.01245e-10
-5.23189e-10
-5.45183e-10
-5.67144e-10
-5.89118e-10
-6.11092e-10
-6.33051e-10
-6.55025e-10
-6.77002e-10
-6.98981e-10
-7.20933e-10
-7.42886e-10
-7.64872e-10
-7.8683e-10
-8.08802e-10
-8.30772e-10
-8.52741e-10
-8.74703e-10
-8.96682e-10
-9.18647e-10
-9.40621e-10
-9.62586e-10
-9.84554e-10
-1.00652e-09
-1.02851e-09
-1.05044e-09
-1.07244e-09
-1.09442e-09
-1.11638e-09
-1.13833e-09
-1.1603e-09
-1.18229e-09
-1.20428e-09
-1.22628e-09
-1.24827e-09
-1.27029e-09
-1.29233e-09
-1.31437e-09
-1.3365e-09
-1.35867e-09
-1.38095e-09
-1.40338e-09
-1.42601e-09
-1.44892e-09
-1.47226e-09
-1.49617e-09
-1.52095e-09
-1.54691e-09
-1.57458e-09
-1.60462e-09
-1.63799e-09
-1.67591e-09
-1.72014e-09
-1.77294e-09
-1.8371e-09
-1.91616e-09
-2.01363e-09
-2.12862e-09
-2.27397e-09
-2.49709e-09
1.05958e-10
-2.53434e-11
-3.80843e-11
-6.00542e-11
-8.27622e-11
-1.05266e-10
-1.27507e-10
-1.49653e-10
-1.71718e-10
-1.93714e-10
-2.15718e-10
-2.37675e-10
-2.59615e-10
-2.81602e-10
-3.03567e-10
-3.25506e-10
-3.47484e-10
-3.69434e-10
-3.91423e-10
-4.13377e-10
-4.35325e-10
-4.57292e-10
-4.79255e-10
-5.01243e-10
-5.23225e-10
-5.45186e-10
-5.67156e-10
-5.89116e-10
-6.11088e-10
-6.33061e-10
-6.55024e-10
-6.76987e-10
-6.98944e-10
-7.20924e-10
-7.42918e-10
-7.64876e-10
-7.86833e-10
-8.08801e-10
-8.30765e-10
-8.52727e-10
-8.74704e-10
-8.96658e-10
-9.18645e-10
-9.40597e-10
-9.62585e-10
-9.84551e-10
-1.00652e-09
-1.02848e-09
-1.05049e-09
-1.07244e-09
-1.09439e-09
-1.11636e-09
-1.13835e-09
-1.16033e-09
-1.1823e-09
-1.20426e-09
-1.22625e-09
-1.24826e-09
-1.27026e-09
-1.29229e-09
-1.31438e-09
-1.33648e-09
-1.35866e-09
-1.38094e-09
-1.40336e-09
-1.42597e-09
-1.44889e-09
-1.47221e-09
-1.49613e-09
-1.52089e-09
-1.54686e-09
-1.5745e-09
-1.60454e-09
-1.63788e-09
-1.67582e-09
-1.72007e-09
-1.77286e-09
-1.83703e-09
-1.91611e-09
-2.01324e-09
-2.12589e-09
-2.27644e-09
-2.49766e-09
1.04381e-10
-2.53061e-11
-3.80716e-11
-6.00385e-11
-8.27623e-11
-1.05232e-10
-1.27519e-10
-1.49659e-10
-1.71717e-10
-1.93733e-10
-2.15692e-10
-2.37675e-10
-2.59645e-10
-2.8158e-10
-3.03548e-10
-3.25522e-10
-3.4746e-10
-3.69438e-10
-3.91392e-10
-4.1336e-10
-4.35352e-10
-4.57319e-10
-4.79287e-10
-5.01241e-10
-5.23201e-10
-5.45169e-10
-5.67145e-10
-5.89121e-10
-6.11079e-10
-6.33045e-10
-6.55023e-10
-6.76997e-10
-6.98976e-10
-7.20941e-10
-7.42876e-10
-7.6487e-10
-7.86831e-10
-8.08804e-10
-8.30776e-10
-8.52747e-10
-8.74705e-10
-8.96682e-10
-9.18643e-10
-9.40618e-10
-9.62585e-10
-9.84548e-10
-1.00653e-09
-1.0285e-09
-1.05044e-09
-1.07242e-09
-1.09441e-09
-1.11637e-09
-1.13833e-09
-1.1603e-09
-1.18228e-09
-1.20428e-09
-1.22626e-09
-1.24824e-09
-1.27027e-09
-1.2923e-09
-1.31435e-09
-1.33647e-09
-1.35864e-09
-1.38092e-09
-1.40333e-09
-1.42594e-09
-1.44884e-09
-1.47215e-09
-1.49605e-09
-1.5208e-09
-1.54673e-09
-1.57436e-09
-1.60435e-09
-1.63765e-09
-1.67552e-09
-1.71968e-09
-1.77237e-09
-1.83645e-09
-1.91541e-09
-2.01232e-09
-2.12483e-09
-2.27605e-09
-2.49706e-09
1.05067e-10
-2.24112e-11
-3.76294e-11
-6.00229e-11
-8.27583e-11
-1.05259e-10
-1.27495e-10
-1.49663e-10
-1.71711e-10
-1.93702e-10
-2.15717e-10
-2.37673e-10
-2.5962e-10
-2.81609e-10
-3.03553e-10
-3.25515e-10
-3.47472e-10
-3.69446e-10
-3.91426e-10
-4.13385e-10
-4.35328e-10
-4.57296e-10
-4.79266e-10
-5.01243e-10
-5.23209e-10
-5.45187e-10
-5.67159e-10
-5.89112e-10
-6.11097e-10
-6.33066e-10
-6.55026e-10
-6.7699e-10
-6.98954e-10
-7.20918e-10
-7.42925e-10
-7.64867e-10
-7.86833e-10
-8.08803e-10
-8.30771e-10
-8.52723e-10
-8.74708e-10
-8.96677e-10
-9.18644e-10
-9.40611e-10
-9.62585e-10
-9.84558e-10
-1.00652e-09
-1.02849e-09
-1.05047e-09
-1.07245e-09
-1.0944e-09
-1.11637e-09
-1.13835e-09
-1.16032e-09
-1.18229e-09
-1.20426e-09
-1.22625e-09
-1.24825e-09
-1.27025e-09
-1.29228e-09
-1.31436e-09
-1.33645e-09
-1.35863e-09
-1.38089e-09
-1.40329e-09
-1.42589e-09
-1.44878e-09
-1.47208e-09
-1.49596e-09
-1.52067e-09
-1.54656e-09
-1.57413e-09
-1.60405e-09
-1.63725e-09
-1.67501e-09
-1.71902e-09
-1.7715e-09
-1.83535e-09
-1.91404e-09
-2.01117e-09
-2.12611e-09
-2.27344e-09
-2.49511e-09
1.08569e-10
-2.83495e-11
-3.89285e-11
-6.0088e-11
-8.27404e-11
-1.05207e-10
-1.27511e-10
-1.49625e-10
-1.7171e-10
-1.93724e-10
-2.15686e-10
-2.37676e-10
-2.59643e-10
-2.81569e-10
-3.03554e-10
-3.2551e-10
-3.4747e-10
-3.69426e-10
-3.91389e-10
-4.13358e-10
-4.35345e-10
-4.57306e-10
-4.79278e-10
-5.0124e-10
-5.2321e-10
-5.45176e-10
-5.67136e-10
-5.89119e-10
-6.11075e-10
-6.33042e-10
-6.55021e-10
-6.7699e-10
-6.98962e-10
-7.20943e-10
-7.42878e-10
-7.64862e-10
-7.8685e-10
-8.08803e-10
-8.30777e-10
-8.52744e-10
-8.74707e-10
-8.9668e-10
-9.18645e-10
-9.40616e-10
-9.62583e-10
-9.84557e-10
-1.00653e-09
-1.02849e-09
-1.05045e-09
-1.07241e-09
-1.0944e-09
-1.11636e-09
-1.13831e-09
-1.1603e-09
-1.18228e-09
-1.20427e-09
-1.22624e-09
-1.24823e-09
-1.27025e-09
-1.29226e-09
-1.31431e-09
-1.33643e-09
-1.3586e-09
-1.38086e-09
-1.40326e-09
-1.42584e-09
-1.44871e-09
-1.47198e-09
-1.49583e-09
-1.52049e-09
-1.54634e-09
-1.57383e-09
-1.60365e-09
-1.63671e-09
-1.67431e-09
-1.71807e-09
-1.77028e-09
-1.83378e-09
-1.91198e-09
-2.00742e-09
-2.11604e-09
-2.26615e-09
-2.49271e-09
1.20077e-10
-2.30668e-11
-3.82232e-11
-6.00177e-11
-8.27037e-11
-1.05216e-10
-1.27478e-10
-1.49634e-10
-1.71703e-10
-1.93702e-10
-2.15711e-10
-2.37667e-10
-2.59621e-10
-2.81606e-10
-3.03551e-10
-3.2552e-10
-3.47471e-10
-3.69453e-10
-3.91427e-10
-4.13387e-10
-4.35334e-10
-4.57307e-10
-4.79272e-10
-5.01241e-10
-5.23212e-10
-5.45179e-10
-5.67162e-10
-5.89117e-10
-6.11097e-10
-6.33067e-10
-6.55031e-10
-6.76993e-10
-6.98971e-10
-7.20918e-10
-7.42918e-10
-7.64883e-10
-7.86826e-10
-8.08812e-10
-8.30786e-10
-8.52741e-10
-8.74719e-10
-8.96681e-10
-9.18664e-10
-9.40617e-10
-9.62598e-10
-9.84554e-10
-1.00652e-09
-1.0285e-09
-1.05046e-09
-1.07245e-09
-1.09439e-09
-1.11637e-09
-1.13836e-09
-1.16031e-09
-1.18228e-09
-1.20426e-09
-1.22625e-09
-1.24824e-09
-1.27024e-09
-1.29227e-09
-1.31433e-09
-1.33642e-09
-1.35858e-09
-1.38083e-09
-1.40321e-09
-1.42578e-09
-1.44863e-09
-1.47188e-09
-1.49568e-09
-1.52033e-09
-1.54606e-09
-1.57345e-09
-1.60315e-09
-1.63604e-09
-1.67341e-09
-1.71688e-09
-1.7687e-09
-1.83173e-09
-1.90935e-09
-2.00449e-09
-2.11638e-09
-2.24977e-09
-2.49361e-09
1.45665e-10
-3.00605e-11
-4.06128e-11
-6.00191e-11
-8.26394e-11
-1.05158e-10
-1.27457e-10
-1.49605e-10
-1.71682e-10
-1.93702e-10
-2.1568e-10
-2.37667e-10
-2.5963e-10
-2.81569e-10
-3.03549e-10
-3.25508e-10
-3.47468e-10
-3.69428e-10
-3.91389e-10
-4.13359e-10
-4.35337e-10
-4.57301e-10
-4.79267e-10
-5.01244e-10
-5.23207e-10
-5.45179e-10
-5.67138e-10
-5.89114e-10
-6.1108e-10
-6.33043e-10
-6.55012e-10
-6.76988e-10
-6.98956e-10
-7.2094e-10
-7.42887e-10
-7.64857e-10
-7.86845e-10
-8.08808e-10
-8.30768e-10
-8.52751e-10
-8.74714e-10
-8.96678e-10
-9.1865e-10
-9.40616e-10
-9.6258e-10
-9.84555e-10
-1.00652e-09
-1.02848e-09
-1.05046e-09
-1.07241e-09
-1.0944e-09
-1.11635e-09
-1.13832e-09
-1.1603e-09
-1.18227e-09
-1.20426e-09
-1.22623e-09
-1.24822e-09
-1.27023e-09
-1.29224e-09
-1.31429e-09
-1.33638e-09
-1.35854e-09
-1.38078e-09
-1.40316e-09
-1.42571e-09
-1.44853e-09
-1.47174e-09
-1.4955e-09
-1.51999e-09
-1.54574e-09
-1.57301e-09
-1.60254e-09
-1.63522e-09
-1.6723e-09
-1.71539e-09
-1.76679e-09
-1.8292e-09
-1.90609e-09
-1.99746e-09
-2.10761e-09
-2.22547e-09
-1.31318e-11
-4.04518e-11
-5.97638e-11
-8.25434e-11
-1.05129e-10
-1.27437e-10
-1.49598e-10
-1.71677e-10
-1.93698e-10
-2.15692e-10
-2.37659e-10
-2.59622e-10
-2.81599e-10
-3.03548e-10
-3.25515e-10
-3.47481e-10
-3.69445e-10
-3.91416e-10
-4.13381e-10
-4.35343e-10
-4.57308e-10
-4.79279e-10
-5.0124e-10
-5.23216e-10
-5.45179e-10
-5.6716e-10
-5.89121e-10
-6.11088e-10
-6.33063e-10
-6.55035e-10
-6.76996e-10
-6.98966e-10
-7.20926e-10
-7.42912e-10
-7.6488e-10
-7.86835e-10
-8.0881e-10
-8.3079e-10
-8.5275e-10
-8.74721e-10
-8.96693e-10
-9.18658e-10
-9.40624e-10
-9.62598e-10
-9.84555e-10
-1.00652e-09
-1.0285e-09
-1.05046e-09
-1.07244e-09
-1.09439e-09
-1.11637e-09
-1.13835e-09
-1.1603e-09
-1.18227e-09
-1.20425e-09
-1.22623e-09
-1.24823e-09
-1.27022e-09
-1.29225e-09
-1.31429e-09
-1.33638e-09
-1.35852e-09
-1.38075e-09
-1.40311e-09
-1.42564e-09
-1.44844e-09
-1.47162e-09
-1.49532e-09
-1.51987e-09
-1.5454e-09
-1.57255e-09
-1.60191e-09
-1.63435e-09
-1.67111e-09
-1.71381e-09
-1.7647e-09
-1.82644e-09
-1.90278e-09
-1.99267e-09
-2.11945e-09
-2.95293e-13
-3.96631e-11
-5.94005e-11
-8.23721e-11
-1.05024e-10
-1.2737e-10
-1.49558e-10
-1.71647e-10
-1.93676e-10
-2.15669e-10
-2.37655e-10
-2.59622e-10
-2.81566e-10
-3.03543e-10
-3.25511e-10
-3.47464e-10
-3.69436e-10
-3.91396e-10
-4.13366e-10
-4.35332e-10
-4.57304e-10
-4.79264e-10
-5.01246e-10
-5.23209e-10
-5.45178e-10
-5.67143e-10
-5.89113e-10
-6.11089e-10
-6.33048e-10
-6.55009e-10
-6.76996e-10
-6.98955e-10
-7.20932e-10
-7.42894e-10
-7.64862e-10
-7.86837e-10
-8.08811e-10
-8.30771e-10
-8.52749e-10
-8.74714e-10
-8.96678e-10
-9.18652e-10
-9.40614e-10
-9.62578e-10
-9.84551e-10
-1.00652e-09
-1.02848e-09
-1.05045e-09
-1.07242e-09
-1.09439e-09
-1.11635e-09
-1.13832e-09
-1.1603e-09
-1.18226e-09
-1.20425e-09
-1.22622e-09
-1.2482e-09
-1.2702e-09
-1.29222e-09
-1.31426e-09
-1.33634e-09
-1.35847e-09
-1.38069e-09
-1.40304e-09
-1.42553e-09
-1.44831e-09
-1.47143e-09
-1.4951e-09
-1.51951e-09
-1.54497e-09
-1.57195e-09
-1.60107e-09
-1.63322e-09
-1.66957e-09
-1.71177e-09
-1.7617e-09
-1.82279e-09
-1.89812e-09
-1.98573e-09
-2.12646e-09
-1.61438e-11
-3.19053e-11
-5.73086e-11
-8.15299e-11
-1.0461e-10
-1.27151e-10
-1.49427e-10
-1.71556e-10
-1.93624e-10
-2.15641e-10
-2.3763e-10
-2.59608e-10
-2.81573e-10
-3.03547e-10
-3.25505e-10
-3.47468e-10
-3.69438e-10
-3.91403e-10
-4.13368e-10
-4.35334e-10
-4.57309e-10
-4.79275e-10
-5.01233e-10
-5.23212e-10
-5.45177e-10
-5.67153e-10
-5.8912e-10
-6.11085e-10
-6.33047e-10
-6.55028e-10
-6.76994e-10
-6.98962e-10
-7.20923e-10
-7.42904e-10
-7.64874e-10
-7.86839e-10
-8.08804e-10
-8.30773e-10
-8.52746e-10
-8.74717e-10
-8.96681e-10
-9.1865e-10
-9.40622e-10
-9.62585e-10
-9.84563e-10
-1.00652e-09
-1.0285e-09
-1.05047e-09
-1.07244e-09
-1.09441e-09
-1.11638e-09
-1.13836e-09
-1.16033e-09
-1.18231e-09
-1.2043e-09
-1.22629e-09
-1.24829e-09
-1.2703e-09
-1.29234e-09
-1.3144e-09
-1.33652e-09
-1.35868e-09
-1.38092e-09
-1.4033e-09
-1.42585e-09
-1.44863e-09
-1.47177e-09
-1.4954e-09
-1.51974e-09
-1.54506e-09
-1.57178e-09
-1.6005e-09
-1.63196e-09
-1.66738e-09
-1.70784e-09
-1.75609e-09
-1.81476e-09
-1.88823e-09
-1.98017e-09
-2.08789e-09
1.44704e-10
-2.33867e-11
-3.36346e-11
-5.79326e-11
-8.1797e-11
-1.04758e-10
-1.27238e-10
-1.49487e-10
-1.71597e-10
-1.93648e-10
-2.15662e-10
-2.3764e-10
-2.59612e-10
-2.8159e-10
-3.03542e-10
-3.25515e-10
-3.47486e-10
-3.69441e-10
-3.91405e-10
-4.13379e-10
-4.35344e-10
-4.57304e-10
-4.79277e-10
-5.01255e-10
-5.23219e-10
-5.45188e-10
-5.67153e-10
-5.89121e-10
-6.11095e-10
-6.33074e-10
-6.55027e-10
-6.76998e-10
-6.98971e-10
-7.20943e-10
-7.42905e-10
-7.64865e-10
-7.8684e-10
-8.08822e-10
-8.30782e-10
-8.52747e-10
-8.74724e-10
-8.96692e-10
-9.18655e-10
-9.40622e-10
-9.62591e-10
-9.84569e-10
-1.00654e-09
-1.0285e-09
-1.05047e-09
-1.07244e-09
-1.09443e-09
-1.11639e-09
-1.13836e-09
-1.16033e-09
-1.18232e-09
-1.2043e-09
-1.22629e-09
-1.24829e-09
-1.27032e-09
-1.29236e-09
-1.31442e-09
-1.33652e-09
-1.35869e-09
-1.38095e-09
-1.40334e-09
-1.42591e-09
-1.44873e-09
-1.4719e-09
-1.4956e-09
-1.52004e-09
-1.54551e-09
-1.57237e-09
-1.60134e-09
-1.63317e-09
-1.66908e-09
-1.71052e-09
-1.75948e-09
-1.81898e-09
-1.89318e-09
-1.98597e-09
-2.08803e-09
-2.18359e-09
1.30719e-10
-1.23845e-11
-3.4322e-11
-5.83587e-11
-8.1978e-11
-1.04837e-10
-1.27281e-10
-1.49494e-10
-1.71607e-10
-1.93655e-10
-2.15655e-10
-2.37653e-10
-2.59616e-10
-2.81571e-10
-3.03558e-10
-3.25508e-10
-3.47461e-10
-3.69439e-10
-3.91406e-10
-4.13366e-10
-4.35338e-10
-4.57314e-10
-4.79274e-10
-5.01233e-10
-5.23212e-10
-5.45175e-10
-5.67155e-10
-5.8912e-10
-6.11082e-10
-6.33044e-10
-6.5503e-10
-6.76999e-10
-6.98953e-10
-7.20928e-10
-7.42901e-10
-7.64882e-10
-7.86847e-10
-8.08788e-10
-8.30776e-10
-8.52752e-10
-8.74715e-10
-8.96673e-10
-9.18656e-10
-9.40625e-10
-9.6259e-10
-9.84556e-10
-1.00652e-09
-1.0285e-09
-1.05047e-09
-1.07245e-09
-1.0944e-09
-1.11639e-09
-1.13835e-09
-1.16033e-09
-1.18231e-09
-1.20429e-09
-1.22629e-09
-1.24829e-09
-1.27029e-09
-1.29233e-09
-1.3144e-09
-1.33654e-09
-1.3587e-09
-1.38096e-09
-1.40336e-09
-1.42594e-09
-1.44877e-09
-1.47199e-09
-1.49573e-09
-1.52023e-09
-1.54578e-09
-1.57286e-09
-1.60203e-09
-1.63413e-09
-1.67049e-09
-1.7126e-09
-1.76228e-09
-1.82275e-09
-1.89788e-09
-1.99171e-09
-2.10674e-09
-2.19432e-09
-2.41732e-09
1.48098e-10
-1.3711e-11
-3.52694e-11
-5.87885e-11
-8.21587e-11
-1.04921e-10
-1.27335e-10
-1.4954e-10
-1.71629e-10
-1.93668e-10
-2.15672e-10
-2.37658e-10
-2.59622e-10
-2.8158e-10
-3.03541e-10
-3.25524e-10
-3.4749e-10
-3.69439e-10
-3.91409e-10
-4.13383e-10
-4.35344e-10
-4.57289e-10
-4.79273e-10
-5.01265e-10
-5.23218e-10
-5.45185e-10
-5.67152e-10
-5.89112e-10
-6.11101e-10
-6.33075e-10
-6.55023e-10
-6.77001e-10
-6.9897e-10
-7.20945e-10
-7.42903e-10
-7.64866e-10
-7.86832e-10
-8.08834e-10
-8.30787e-10
-8.52734e-10
-8.74725e-10
-8.96695e-10
-9.18649e-10
-9.40625e-10
-9.62587e-10
-9.8457e-10
-1.00653e-09
-1.0285e-09
-1.05047e-09
-1.07243e-09
-1.09443e-09
-1.11638e-09
-1.13836e-09
-1.16033e-09
-1.18232e-09
-1.20429e-09
-1.22629e-09
-1.24829e-09
-1.27032e-09
-1.29236e-09
-1.31442e-09
-1.33652e-09
-1.3587e-09
-1.38098e-09
-1.40338e-09
-1.42599e-09
-1.44884e-09
-1.47207e-09
-1.49588e-09
-1.52043e-09
-1.54613e-09
-1.5733e-09
-1.60268e-09
-1.63516e-09
-1.67197e-09
-1.7146e-09
-1.76488e-09
-1.82619e-09
-1.90215e-09
-1.99657e-09
-2.11155e-09
-2.14911e-09
-2.44433e-09
1.06913e-10
-9.49387e-12
-3.55785e-11
-5.91633e-11
-8.23441e-11
-1.05014e-10
-1.27386e-10
-1.49583e-10
-1.71649e-10
-1.93693e-10
-2.15689e-10
-2.37667e-10
-2.59623e-10
-2.81594e-10
-3.0356e-10
-3.25512e-10
-3.47463e-10
-3.69439e-10
-3.91413e-10
-4.13372e-10
-4.35338e-10
-4.57327e-10
-4.79275e-10
-5.01234e-10
-5.23224e-10
-5.4518e-10
-5.67155e-10
-5.89121e-10
-6.11084e-10
-6.33053e-10
-6.55034e-10
-6.76996e-10
-6.98969e-10
-7.20929e-10
-7.42901e-10
-7.6488e-10
-7.86857e-10
-8.08799e-10
-8.30783e-10
-8.52758e-10
-8.74721e-10
-8.96677e-10
-9.18664e-10
-9.40625e-10
-9.62589e-10
-9.84565e-10
-1.00653e-09
-1.02849e-09
-1.05048e-09
-1.07244e-09
-1.09441e-09
-1.11639e-09
-1.13835e-09
-1.16033e-09
-1.18231e-09
-1.20431e-09
-1.22629e-09
-1.24828e-09
-1.2703e-09
-1.29234e-09
-1.3144e-09
-1.33654e-09
-1.35872e-09
-1.38098e-09
-1.40341e-09
-1.42599e-09
-1.44887e-09
-1.47215e-09
-1.49597e-09
-1.52061e-09
-1.54633e-09
-1.57369e-09
-1.60322e-09
-1.63588e-09
-1.67271e-09
-1.7155e-09
-1.76681e-09
-1.82903e-09
-1.90592e-09
-2.00184e-09
-2.12114e-09
-2.19885e-09
-2.45012e-09
8.90433e-11
-1.25453e-11
-3.70517e-11
-5.96748e-11
-8.25732e-11
-1.05144e-10
-1.27495e-10
-1.49626e-10
-1.71714e-10
-1.93718e-10
-2.15709e-10
-2.37701e-10
-2.59648e-10
-2.81584e-10
-3.03562e-10
-3.25519e-10
-3.47501e-10
-3.69457e-10
-3.91416e-10
-4.13382e-10
-4.3535e-10
-4.57287e-10
-4.79303e-10
-5.01278e-10
-5.23211e-10
-5.45186e-10
-5.67163e-10
-5.89115e-10
-6.11114e-10
-6.33073e-10
-6.55035e-10
-6.77001e-10
-6.98987e-10
-7.2095e-10
-7.42907e-10
-7.64867e-10
-7.86855e-10
-8.08832e-10
-8.30795e-10
-8.52745e-10
-8.74745e-10
-8.96702e-10
-9.18648e-10
-9.40642e-10
-9.626e-10
-9.84576e-10
-1.00654e-09
-1.02851e-09
-1.05046e-09
-1.07245e-09
-1.09441e-09
-1.11638e-09
-1.13836e-09
-1.16033e-09
-1.18232e-09
-1.20429e-09
-1.2263e-09
-1.2483e-09
-1.27032e-09
-1.29235e-09
-1.31442e-09
-1.33653e-09
-1.35872e-09
-1.38099e-09
-1.4034e-09
-1.42604e-09
-1.44891e-09
-1.47222e-09
-1.49607e-09
-1.52074e-09
-1.54657e-09
-1.57397e-09
-1.60372e-09
-1.6366e-09
-1.67383e-09
-1.71711e-09
-1.76884e-09
-1.83161e-09
-1.90906e-09
-2.00497e-09
-2.12622e-09
-2.25295e-09
-2.45154e-09
8.02689e-11
-1.61496e-11
-3.81534e-11
-5.99896e-11
-8.2729e-11
-1.0522e-10
-1.27531e-10
-1.49652e-10
-1.7172e-10
-1.93733e-10
-2.1572e-10
-2.37674e-10
-2.59641e-10
-2.8161e-10
-3.03568e-10
-3.25522e-10
-3.4747e-10
-3.69438e-10
-3.91416e-10
-4.13375e-10
-4.35334e-10
-4.57323e-10
-4.79259e-10
-5.01232e-10
-5.23235e-10
-5.45181e-10
-5.67149e-10
-5.89126e-10
-6.11079e-10
-6.33062e-10
-6.5503e-10
-6.77003e-10
-6.98958e-10
-7.2093e-10
-7.42906e-10
-7.64877e-10
-7.86847e-10
-8.08817e-10
-8.3079e-10
-8.52744e-10
-8.74723e-10
-8.96693e-10
-9.18663e-10
-9.40634e-10
-9.62575e-10
-9.84565e-10
-1.00653e-09
-1.0285e-09
-1.05049e-09
-1.07243e-09
-1.09441e-09
-1.11639e-09
-1.13836e-09
-1.16033e-09
-1.18229e-09
-1.2043e-09
-1.22626e-09
-1.24827e-09
-1.27029e-09
-1.29234e-09
-1.31441e-09
-1.33653e-09
-1.35871e-09
-1.38099e-09
-1.40341e-09
-1.42601e-09
-1.44893e-09
-1.47222e-09
-1.49612e-09
-1.52083e-09
-1.5467e-09
-1.57422e-09
-1.60407e-09
-1.63711e-09
-1.67459e-09
-1.71823e-09
-1.7703e-09
-1.83355e-09
-1.91138e-09
-2.00699e-09
-2.12719e-09
-2.27364e-09
-2.4548e-09
5.1886e-11
-1.47147e-11
-3.75417e-11
-6.01264e-11
-8.28121e-11
-1.05287e-10
-1.27561e-10
-1.49681e-10
-1.71737e-10
-1.93749e-10
-2.15729e-10
-2.37701e-10
-2.59665e-10
-2.81605e-10
-3.03557e-10
-3.25532e-10
-3.47495e-10
-3.69465e-10
-3.91417e-10
-4.13379e-10
-4.35346e-10
-4.57312e-10
-4.79305e-10
-5.01266e-10
-5.23204e-10
-5.45188e-10
-5.67161e-10
-5.89119e-10
-6.11116e-10
-6.33066e-10
-6.55042e-10
-6.76992e-10
-6.98988e-10
-7.20949e-10
-7.429e-10
-7.64877e-10
-7.86857e-10
-8.08813e-10
-8.30785e-10
-8.52759e-10
-8.74722e-10
-8.96688e-10
-9.18651e-10
-9.40634e-10
-9.62602e-10
-9.84574e-10
-1.00654e-09
-1.02851e-09
-1.05046e-09
-1.07245e-09
-1.09442e-09
-1.11639e-09
-1.13835e-09
-1.16032e-09
-1.1823e-09
-1.2043e-09
-1.2263e-09
-1.24829e-09
-1.27031e-09
-1.29233e-09
-1.31439e-09
-1.33652e-09
-1.35871e-09
-1.38098e-09
-1.40341e-09
-1.42605e-09
-1.44892e-09
-1.47228e-09
-1.49615e-09
-1.5209e-09
-1.54679e-09
-1.5744e-09
-1.60432e-09
-1.63749e-09
-1.67516e-09
-1.71906e-09
-1.77141e-09
-1.835e-09
-1.91332e-09
-2.01027e-09
-2.13153e-09
-2.32065e-09
-2.46147e-09
4.95954e-11
-1.76824e-11
-3.84154e-11
-6.02681e-11
-8.28849e-11
-1.05324e-10
-1.27592e-10
-1.49681e-10
-1.71748e-10
-1.9375e-10
-2.15737e-10
-2.37668e-10
-2.59653e-10
-2.81608e-10
-3.0359e-10
-3.25511e-10
-3.47497e-10
-3.69433e-10
-3.91411e-10
-4.13382e-10
-4.35342e-10
-4.57305e-10
-4.79264e-10
-5.01239e-10
-5.23236e-10
-5.45188e-10
-5.67141e-10
-5.89129e-10
-6.11081e-10
-6.33066e-10
-6.55032e-10
-6.77006e-10
-6.98954e-10
-7.20936e-10
-7.42919e-10
-7.64859e-10
-7.8685e-10
-8.0881e-10
-8.30782e-10
-8.52751e-10
-8.74719e-10
-8.96684e-10
-9.18654e-10
-9.40634e-10
-9.62593e-10
-9.84567e-10
-1.00652e-09
-1.02849e-09
-1.05049e-09
-1.07244e-09
-1.0944e-09
-1.11637e-09
-1.13837e-09
-1.16034e-09
-1.18231e-09
-1.20428e-09
-1.22625e-09
-1.24825e-09
-1.27029e-09
-1.29233e-09
-1.31441e-09
-1.33651e-09
-1.35869e-09
-1.38098e-09
-1.40339e-09
-1.42601e-09
-1.44893e-09
-1.47223e-09
-1.49617e-09
-1.5209e-09
-1.54686e-09
-1.57447e-09
-1.60446e-09
-1.63772e-09
-1.6755e-09
-1.71957e-09
-1.77212e-09
-1.83595e-09
-1.9145e-09
-2.01107e-09
-2.13134e-09
-2.32222e-09
-2.46616e-09
4.86473e-11
-1.58264e-11
-3.77163e-11
-6.02678e-11
-8.29306e-11
-1.0535e-10
-1.27592e-10
-1.49725e-10
-1.71744e-10
-1.93762e-10
-2.15714e-10
-2.37709e-10
-2.59669e-10
-2.81606e-10
-3.03546e-10
-3.25535e-10
-3.4749e-10
-3.69467e-10
-3.91407e-10
-4.13375e-10
-4.35342e-10
-4.57334e-10
-4.79297e-10
-5.01248e-10
-5.23206e-10
-5.45172e-10
-5.67173e-10
-5.89122e-10
-6.11108e-10
-6.33061e-10
-6.55033e-10
-6.76994e-10
-6.9899e-10
-7.20948e-10
-7.42895e-10
-7.64871e-10
-7.8685e-10
-8.08808e-10
-8.3078e-10
-8.52746e-10
-8.74717e-10
-8.96682e-10
-9.18654e-10
-9.40626e-10
-9.62583e-10
-9.84564e-10
-1.00653e-09
-1.02852e-09
-1.05045e-09
-1.07243e-09
-1.09443e-09
-1.11639e-09
-1.13835e-09
-1.16031e-09
-1.18228e-09
-1.2043e-09
-1.2263e-09
-1.24827e-09
-1.27029e-09
-1.29232e-09
-1.31436e-09
-1.33651e-09
-1.35868e-09
-1.38096e-09
-1.40338e-09
-1.42602e-09
-1.4489e-09
-1.47225e-09
-1.49613e-09
-1.52091e-09
-1.54683e-09
-1.57449e-09
-1.60449e-09
-1.6378e-09
-1.67564e-09
-1.71979e-09
-1.77242e-09
-1.8364e-09
-1.91514e-09
-2.01258e-09
-2.13357e-09
-2.32442e-09
-2.46917e-09
4.77497e-11
-1.6989e-11
-3.81284e-11
-6.03289e-11
-8.29385e-11
-1.05371e-10
-1.27611e-10
-1.49686e-10
-1.71754e-10
-1.93762e-10
-2.15744e-10
-2.37682e-10
-2.59654e-10
-2.81613e-10
-3.0359e-10
-3.25507e-10
-3.47508e-10
-3.69431e-10
-3.91421e-10
-4.13389e-10
-4.3534e-10
-4.57291e-10
-4.79267e-10
-5.01258e-10
-5.23233e-10
-5.45202e-10
-5.67136e-10
-5.8913e-10
-6.11095e-10
-6.3307e-10
-6.55037e-10
-6.77002e-10
-6.98954e-10
-7.20931e-10
-7.4292e-10
-7.64863e-10
-7.86859e-10
-8.08801e-10
-8.30776e-10
-8.52744e-10
-8.74718e-10
-8.96674e-10
-9.18651e-10
-9.40625e-10
-9.62594e-10
-9.84561e-10
-1.00653e-09
-1.02849e-09
-1.05049e-09
-1.07245e-09
-1.09439e-09
-1.11638e-09
-1.13837e-09
-1.16033e-09
-1.18231e-09
-1.20427e-09
-1.22624e-09
-1.24825e-09
-1.27028e-09
-1.29231e-09
-1.31439e-09
-1.33648e-09
-1.35867e-09
-1.38094e-09
-1.40335e-09
-1.42597e-09
-1.44888e-09
-1.47218e-09
-1.49611e-09
-1.52083e-09
-1.54678e-09
-1.57441e-09
-1.60442e-09
-1.63768e-09
-1.67556e-09
-1.7197e-09
-1.77238e-09
-1.83631e-09
-1.91506e-09
-2.01224e-09
-2.13305e-09
-2.32443e-09
-2.47016e-09
4.77175e-11
-1.69887e-11
-3.81302e-11
-6.03156e-11
-8.29447e-11
-1.0536e-10
-1.27608e-10
-1.49721e-10
-1.7175e-10
-1.9376e-10
-2.15721e-10
-2.37699e-10
-2.59672e-10
-2.81603e-10
-3.03544e-10
-3.25522e-10
-3.47493e-10
-3.69461e-10
-3.91388e-10
-4.13367e-10
-4.3535e-10
-4.57342e-10
-4.79295e-10
-5.01239e-10
-5.23211e-10
-5.45169e-10
-5.67167e-10
-5.89124e-10
-6.11091e-10
-6.33057e-10
-6.55021e-10
-6.77002e-10
-6.98981e-10
-7.20931e-10
-7.42904e-10
-7.64882e-10
-7.86829e-10
-8.08809e-10
-8.30773e-10
-8.5275e-10
-8.74708e-10
-8.96688e-10
-9.18648e-10
-9.40627e-10
-9.62589e-10
-9.84563e-10
-1.00653e-09
-1.02851e-09
-1.05046e-09
-1.07242e-09
-1.09442e-09
-1.11638e-09
-1.13834e-09
-1.16031e-09
-1.18227e-09
-1.20428e-09
-1.22628e-09
-1.24826e-09
-1.27027e-09
-1.2923e-09
-1.31434e-09
-1.33647e-09
-1.35864e-09
-1.38092e-09
-1.40333e-09
-1.42595e-09
-1.44882e-09
-1.47214e-09
-1.49601e-09
-1.52075e-09
-1.54666e-09
-1.57424e-09
-1.60421e-09
-1.63745e-09
-1.67525e-09
-1.71931e-09
-1.77182e-09
-1.83573e-09
-1.91435e-09
-2.01132e-09
-2.13206e-09
-2.32338e-09
-2.46932e-09
4.86294e-11
-1.59936e-11
-3.77568e-11
-6.02811e-11
-8.29183e-11
-1.05361e-10
-1.27588e-10
-1.49708e-10
-1.7173e-10
-1.93756e-10
-2.15736e-10
-2.37692e-10
-2.59654e-10
-2.81626e-10
-3.03571e-10
-3.25513e-10
-3.47508e-10
-3.69442e-10
-3.91417e-10
-4.13392e-10
-4.35338e-10
-4.57294e-10
-4.79267e-10
-5.01258e-10
-5.23231e-10
-5.45201e-10
-5.67144e-10
-5.89125e-10
-6.11088e-10
-6.33073e-10
-6.5505e-10
-6.77004e-10
-6.98961e-10
-7.20929e-10
-7.42903e-10
-7.64874e-10
-7.8687e-10
-8.08807e-10
-8.30773e-10
-8.52738e-10
-8.74718e-10
-8.96686e-10
-9.18651e-10
-9.40625e-10
-9.6259e-10
-9.84564e-10
-1.00653e-09
-1.02849e-09
-1.05048e-09
-1.07245e-09
-1.0944e-09
-1.11637e-09
-1.13837e-09
-1.16033e-09
-1.18231e-09
-1.20427e-09
-1.22623e-09
-1.24826e-09
-1.27026e-09
-1.29229e-09
-1.31437e-09
-1.33645e-09
-1.35863e-09
-1.38088e-09
-1.40329e-09
-1.42588e-09
-1.44877e-09
-1.47205e-09
-1.49591e-09
-1.5206e-09
-1.54649e-09
-1.57402e-09
-1.60391e-09
-1.63703e-09
-1.67472e-09
-1.71861e-09
-1.77097e-09
-1.83461e-09
-1.91298e-09
-2.01001e-09
-2.1309e-09
-2.32134e-09
-2.46708e-09
4.95659e-11
-1.7622e-11
-3.84199e-11
-6.02652e-11
-8.28772e-11
-1.05318e-10
-1.27579e-10
-1.49692e-10
-1.71737e-10
-1.93745e-10
-2.15734e-10
-2.37679e-10
-2.59658e-10
-2.81592e-10
-3.03551e-10
-3.25513e-10
-3.47488e-10
-3.69453e-10
-3.9139e-10
-4.13364e-10
-4.35345e-10
-4.57331e-10
-4.79289e-10
-5.01242e-10
-5.23205e-10
-5.45173e-10
-5.67159e-10
-5.89129e-10
-6.11099e-10
-6.33054e-10
-6.55003e-10
-6.77004e-10
-6.98966e-10
-7.20955e-10
-7.429e-10
-7.64877e-10
-7.86842e-10
-8.08811e-10
-8.30771e-10
-8.52757e-10