/*--------------------------------*- C++ -*----------------------------------*\
| =========                 |                                                 |
| \\      /  F ield         | OpenFOAM: The Open Source CFD Toolbox           |
|  \\    /   O peration     | Version:  v1906                                 |
|   \\  /    A nd           | Web:      www.OpenFOAM.com                      |
|    \\/     M anipulation  |                                                 |
\*---------------------------------------------------------------------------*/
FoamFile
{
    version     2.0;
    format      ascii;
    class       volScalarField;
    location    "0.36";
    object      p;
}
// * * * * * * * * * * * * * * * * * * * * * * * * * * * * * * * * * * * * * //

dimensions      [0 2 -2 0 0 0 0];


internalField   nonuniform List<scalar> 
243374
(
-1.96817e-15
-9.7062e-10
-6.83467e-10
-6.98552e-10
-7.37509e-10
-7.74644e-10
-8.10284e-10
-8.46737e-10
-8.81215e-10
-9.13815e-10
-9.42709e-10
-9.72898e-10
-1.00008e-09
-1.02601e-09
-1.05109e-09
-1.07441e-09
-1.09795e-09
-1.12073e-09
-1.14218e-09
-1.16599e-09
-1.18858e-09
-1.2109e-09
-1.23331e-09
-1.25518e-09
-1.27625e-09
-1.2999e-09
-1.3205e-09
-1.34311e-09
-1.36557e-09
-1.38753e-09
-1.40964e-09
-1.43155e-09
-1.45374e-09
-1.47486e-09
-1.49795e-09
-1.52026e-09
-1.541e-09
-1.56421e-09
-1.5851e-09
-1.60764e-09
-1.62902e-09
-1.65203e-09
-1.67253e-09
-1.69581e-09
-1.71724e-09
-1.73995e-09
-1.76063e-09
-1.78209e-09
-1.80483e-09
-1.8266e-09
-1.84853e-09
-1.86924e-09
-1.89001e-09
-1.91201e-09
-1.93187e-09
-1.95398e-09
-1.97534e-09
-1.9958e-09
-2.01635e-09
-2.03692e-09
-2.05757e-09
-2.07938e-09
-2.10291e-09
-2.12753e-09
-2.15569e-09
-2.18835e-09
-2.22976e-09
-2.28022e-09
-2.34903e-09
-2.44247e-09
-2.5709e-09
-2.75048e-09
-3.00241e-09
-3.36392e-09
-3.8675e-09
-4.57516e-09
-5.56891e-09
-6.92656e-09
-8.47391e-09
-1.20974e-08
-9.96703e-10
-8.15437e-10
-6.93654e-10
-7.07887e-10
-7.42129e-10
-7.78342e-10
-8.1451e-10
-8.49839e-10
-8.83297e-10
-9.15763e-10
-9.47153e-10
-9.75308e-10
-1.00217e-09
-1.02757e-09
-1.05243e-09
-1.07634e-09
-1.09984e-09
-1.12288e-09
-1.14564e-09
-1.16796e-09
-1.19091e-09
-1.21287e-09
-1.23493e-09
-1.25692e-09
-1.27963e-09
-1.30151e-09
-1.32347e-09
-1.3455e-09
-1.36739e-09
-1.38943e-09
-1.41135e-09
-1.43408e-09
-1.45569e-09
-1.47812e-09
-1.49976e-09
-1.52273e-09
-1.54423e-09
-1.56627e-09
-1.58772e-09
-1.61019e-09
-1.6316e-09
-1.65398e-09
-1.67664e-09
-1.69766e-09
-1.72031e-09
-1.74157e-09
-1.7635e-09
-1.78544e-09
-1.8068e-09
-1.82886e-09
-1.85018e-09
-1.87136e-09
-1.89252e-09
-1.91405e-09
-1.93551e-09
-1.95623e-09
-1.97705e-09
-1.99815e-09
-2.0192e-09
-2.04005e-09
-2.0615e-09
-2.08396e-09
-2.10652e-09
-2.13193e-09
-2.16059e-09
-2.19481e-09
-2.237e-09
-2.29087e-09
-2.36216e-09
-2.45738e-09
-2.58984e-09
-2.77421e-09
-3.03464e-09
-3.40137e-09
-3.91884e-09
-4.64467e-09
-5.65689e-09
-7.04091e-09
-8.79991e-09
-1.12606e-08
-1.41782e-09
-7.8254e-10
-6.88261e-10
-7.07684e-10
-7.39741e-10
-7.74061e-10
-8.09671e-10
-8.46419e-10
-8.80319e-10
-9.13646e-10
-9.44231e-10
-9.7277e-10
-9.99842e-10
-1.02561e-09
-1.05015e-09
-1.07399e-09
-1.0971e-09
-1.1208e-09
-1.14314e-09
-1.16565e-09
-1.18882e-09
-1.2106e-09
-1.23293e-09
-1.25479e-09
-1.27714e-09
-1.29918e-09
-1.32092e-09
-1.34336e-09
-1.36543e-09
-1.38735e-09
-1.40973e-09
-1.43196e-09
-1.45387e-09
-1.47542e-09
-1.498e-09
-1.51999e-09
-1.54237e-09
-1.56421e-09
-1.58659e-09
-1.60785e-09
-1.6307e-09
-1.65231e-09
-1.67424e-09
-1.69642e-09
-1.71787e-09
-1.73956e-09
-1.76153e-09
-1.78312e-09
-1.80506e-09
-1.82555e-09
-1.84793e-09
-1.8696e-09
-1.89105e-09
-1.91187e-09
-1.93334e-09
-1.95438e-09
-1.97523e-09
-1.99665e-09
-2.01781e-09
-2.03861e-09
-2.06025e-09
-2.08277e-09
-2.10585e-09
-2.13073e-09
-2.16101e-09
-2.19603e-09
-2.23904e-09
-2.29412e-09
-2.36719e-09
-2.46551e-09
-2.60179e-09
-2.7914e-09
-3.0581e-09
-3.43442e-09
-3.96422e-09
-4.70576e-09
-5.73547e-09
-7.14722e-09
-8.96499e-09
-1.09881e-08
-5.62635e-10
1.08128e-09
-5.38656e-10
-6.79384e-10
-7.0573e-10
-7.37408e-10
-7.7285e-10
-8.0962e-10
-8.45988e-10
-8.81153e-10
-9.13985e-10
-9.45681e-10
-9.74746e-10
-1.00158e-09
-1.02684e-09
-1.0514e-09
-1.07531e-09
-1.09922e-09
-1.12104e-09
-1.14405e-09
-1.16687e-09
-1.18887e-09
-1.21134e-09
-1.23362e-09
-1.25612e-09
-1.27774e-09
-1.30036e-09
-1.32261e-09
-1.34416e-09
-1.3662e-09
-1.38834e-09
-1.41005e-09
-1.4322e-09
-1.45399e-09
-1.47671e-09
-1.49826e-09
-1.5201e-09
-1.54191e-09
-1.56364e-09
-1.58562e-09
-1.60746e-09
-1.62984e-09
-1.65179e-09
-1.67399e-09
-1.69624e-09
-1.71874e-09
-1.7408e-09
-1.76169e-09
-1.78352e-09
-1.8055e-09
-1.82745e-09
-1.84913e-09
-1.87037e-09
-1.89167e-09
-1.91358e-09
-1.93419e-09
-1.95562e-09
-1.97676e-09
-1.99757e-09
-2.0185e-09
-2.03953e-09
-2.06142e-09
-2.0841e-09
-2.1084e-09
-2.13501e-09
-2.16436e-09
-2.1996e-09
-2.24356e-09
-2.30047e-09
-2.37464e-09
-2.47531e-09
-2.61438e-09
-2.80828e-09
-3.0808e-09
-3.46514e-09
-4.00502e-09
-4.76035e-09
-5.80679e-09
-7.24305e-09
-9.30392e-09
-1.3541e-08
-1.45456e-08
-2.61257e-10
-1.57589e-09
-8.04793e-10
-6.83453e-10
-7.03906e-10
-7.34811e-10
-7.70562e-10
-8.07888e-10
-8.44503e-10
-8.79642e-10
-9.13206e-10
-9.44738e-10
-9.73068e-10
-1.00012e-09
-1.02582e-09
-1.05035e-09
-1.07422e-09
-1.09749e-09
-1.12045e-09
-1.14338e-09
-1.16582e-09
-1.18842e-09
-1.21073e-09
-1.23289e-09
-1.25502e-09
-1.27714e-09
-1.29943e-09
-1.32132e-09
-1.34351e-09
-1.36549e-09
-1.38749e-09
-1.4094e-09
-1.43169e-09
-1.45344e-09
-1.47577e-09
-1.49742e-09
-1.51916e-09
-1.54117e-09
-1.56295e-09
-1.5851e-09
-1.60727e-09
-1.62946e-09
-1.65132e-09
-1.67331e-09
-1.69519e-09
-1.7176e-09
-1.73949e-09
-1.76098e-09
-1.78295e-09
-1.80494e-09
-1.82646e-09
-1.84806e-09
-1.86972e-09
-1.89116e-09
-1.91257e-09
-1.93375e-09
-1.95502e-09
-1.97601e-09
-1.99728e-09
-2.01837e-09
-2.03981e-09
-2.06185e-09
-2.08471e-09
-2.10886e-09
-2.13544e-09
-2.16588e-09
-2.20206e-09
-2.24672e-09
-2.3048e-09
-2.38068e-09
-2.48313e-09
-2.62503e-09
-2.82243e-09
-3.0997e-09
-3.49047e-09
-4.03952e-09
-4.80575e-09
-5.8655e-09
-7.31436e-09
-9.15325e-09
-1.10902e-08
-1.46477e-08
-1.81749e-08
2.83618e-11
4.97091e-10
-5.45211e-10
-6.75626e-10
-7.03112e-10
-7.33434e-10
-7.69351e-10
-8.06831e-10
-8.43878e-10
-8.79269e-10
-9.13164e-10
-9.44705e-10
-9.73531e-10
-1.0002e-09
-1.02577e-09
-1.0504e-09
-1.07414e-09
-1.09758e-09
-1.12061e-09
-1.14321e-09
-1.16587e-09
-1.18837e-09
-1.21068e-09
-1.23295e-09
-1.25494e-09
-1.2772e-09
-1.29933e-09
-1.3214e-09
-1.34334e-09
-1.36555e-09
-1.3874e-09
-1.40941e-09
-1.43151e-09
-1.45344e-09
-1.47526e-09
-1.49687e-09
-1.51882e-09
-1.54092e-09
-1.56287e-09
-1.58498e-09
-1.60728e-09
-1.62953e-09
-1.65133e-09
-1.67324e-09
-1.6951e-09
-1.71714e-09
-1.73916e-09
-1.76083e-09
-1.78299e-09
-1.80478e-09
-1.8265e-09
-1.8482e-09
-1.86981e-09
-1.89123e-09
-1.9127e-09
-1.9339e-09
-1.95521e-09
-1.97636e-09
-1.99751e-09
-2.01898e-09
-2.04039e-09
-2.06265e-09
-2.08563e-09
-2.11023e-09
-2.1373e-09
-2.16801e-09
-2.20452e-09
-2.25011e-09
-2.30905e-09
-2.38606e-09
-2.49043e-09
-2.63406e-09
-2.83426e-09
-3.11523e-09
-3.51076e-09
-4.06645e-09
-4.84016e-09
-5.90918e-09
-7.37414e-09
-9.46362e-09
-1.31196e-08
-1.48353e-08
-1.81058e-08
-2.86467e-10
-8.51591e-10
-7.03648e-10
-6.79019e-10
-7.02154e-10
-7.32497e-10
-7.68525e-10
-8.06337e-10
-8.43458e-10
-8.78894e-10
-9.12988e-10
-9.44468e-10
-9.73224e-10
-1.00002e-09
-1.02552e-09
-1.05017e-09
-1.07392e-09
-1.09748e-09
-1.1205e-09
-1.143e-09
-1.1657e-09
-1.18817e-09
-1.21048e-09
-1.2328e-09
-1.25483e-09
-1.27706e-09
-1.29906e-09
-1.32126e-09
-1.34324e-09
-1.36531e-09
-1.3872e-09
-1.4093e-09
-1.4313e-09
-1.45308e-09
-1.47492e-09
-1.49663e-09
-1.5187e-09
-1.54063e-09
-1.56255e-09
-1.58459e-09
-1.60645e-09
-1.62829e-09
-1.65028e-09
-1.67246e-09
-1.69455e-09
-1.71673e-09
-1.73884e-09
-1.76071e-09
-1.78287e-09
-1.80472e-09
-1.82642e-09
-1.84807e-09
-1.86974e-09
-1.89128e-09
-1.9127e-09
-1.93398e-09
-1.95528e-09
-1.97637e-09
-1.99775e-09
-2.01925e-09
-2.04095e-09
-2.06324e-09
-2.08651e-09
-2.11132e-09
-2.13863e-09
-2.16983e-09
-2.2067e-09
-2.25311e-09
-2.31261e-09
-2.39066e-09
-2.49614e-09
-2.64146e-09
-2.84343e-09
-3.1268e-09
-3.52538e-09
-4.08524e-09
-4.86361e-09
-5.9379e-09
-7.40687e-09
-9.36086e-09
-1.18893e-08
-1.48437e-08
-1.82401e-08
-6.46779e-10
-8.64141e-10
-7.00181e-10
-6.78887e-10
-7.02069e-10
-7.32482e-10
-7.68508e-10
-8.06344e-10
-8.43476e-10
-8.78909e-10
-9.12946e-10
-9.44486e-10
-9.73265e-10
-9.99977e-10
-1.02557e-09
-1.05021e-09
-1.07395e-09
-1.09759e-09
-1.12034e-09
-1.14295e-09
-1.16571e-09
-1.18816e-09
-1.21054e-09
-1.23283e-09
-1.25478e-09
-1.27706e-09
-1.29906e-09
-1.32118e-09
-1.34329e-09
-1.36534e-09
-1.38728e-09
-1.40934e-09
-1.43133e-09
-1.4532e-09
-1.47496e-09
-1.49682e-09
-1.51898e-09
-1.5409e-09
-1.56292e-09
-1.58515e-09
-1.60713e-09
-1.62904e-09
-1.65088e-09
-1.67279e-09
-1.69474e-09
-1.71692e-09
-1.73897e-09
-1.76084e-09
-1.78298e-09
-1.80482e-09
-1.82658e-09
-1.84812e-09
-1.86988e-09
-1.89142e-09
-1.91285e-09
-1.93424e-09
-1.95551e-09
-1.97673e-09
-1.99819e-09
-2.01981e-09
-2.04164e-09
-2.06402e-09
-2.08745e-09
-2.1125e-09
-2.14013e-09
-2.17161e-09
-2.20892e-09
-2.25578e-09
-2.31571e-09
-2.39446e-09
-2.50079e-09
-2.64694e-09
-2.84993e-09
-3.13442e-09
-3.53468e-09
-4.0953e-09
-4.87494e-09
-5.95049e-09
-7.42044e-09
-9.37089e-09
-1.19162e-08
-1.48104e-08
-1.82989e-08
-8.66472e-10
4.25195e-10
-5.5079e-10
-6.7682e-10
-7.02983e-10
-7.33537e-10
-7.69288e-10
-8.06845e-10
-8.43824e-10
-8.7926e-10
-9.13081e-10
-9.4468e-10
-9.73634e-10
-1.00032e-09
-1.02592e-09
-1.05066e-09
-1.07423e-09
-1.09772e-09
-1.12111e-09
-1.14326e-09
-1.16576e-09
-1.18829e-09
-1.21073e-09
-1.23309e-09
-1.255e-09
-1.27757e-09
-1.29921e-09
-1.32176e-09
-1.34339e-09
-1.36545e-09
-1.38764e-09
-1.40955e-09
-1.4319e-09
-1.45352e-09
-1.47524e-09
-1.49694e-09
-1.51895e-09
-1.54073e-09
-1.56255e-09
-1.58459e-09
-1.60679e-09
-1.62892e-09
-1.65087e-09
-1.67272e-09
-1.69482e-09
-1.7171e-09
-1.73937e-09
-1.76121e-09
-1.78342e-09
-1.80507e-09
-1.827e-09
-1.84837e-09
-1.8701e-09
-1.89165e-09
-1.91326e-09
-1.93477e-09
-1.95595e-09
-1.97727e-09
-1.9988e-09
-2.02047e-09
-2.04266e-09
-2.06489e-09
-2.08854e-09
-2.11375e-09
-2.14154e-09
-2.17331e-09
-2.21114e-09
-2.25796e-09
-2.31835e-09
-2.39746e-09
-2.50422e-09
-2.65041e-09
-2.8537e-09
-3.13806e-09
-3.53751e-09
-4.09674e-09
-4.87435e-09
-5.94724e-09
-7.41731e-09
-9.52152e-09
-1.32272e-08
-1.47975e-08
-1.82974e-08
-9.00004e-10
-1.53391e-09
-8.00457e-10
-6.82487e-10
-7.03793e-10
-7.34731e-10
-7.70512e-10
-8.07981e-10
-8.44391e-10
-8.79663e-10
-9.13142e-10
-9.44639e-10
-9.73157e-10
-9.99879e-10
-1.02587e-09
-1.05027e-09
-1.07424e-09
-1.09776e-09
-1.12007e-09
-1.1432e-09
-1.16577e-09
-1.18818e-09
-1.21073e-09
-1.23286e-09
-1.25503e-09
-1.27679e-09
-1.29908e-09
-1.32086e-09
-1.34332e-09
-1.36547e-09
-1.38714e-09
-1.40953e-09
-1.43103e-09
-1.45357e-09
-1.47554e-09
-1.49754e-09
-1.51956e-09
-1.54124e-09
-1.56314e-09
-1.58514e-09
-1.60713e-09
-1.62928e-09
-1.65143e-09
-1.67316e-09
-1.69555e-09
-1.71764e-09
-1.73976e-09
-1.76135e-09
-1.78304e-09
-1.80512e-09
-1.82645e-09
-1.8484e-09
-1.87029e-09
-1.8916e-09
-1.91325e-09
-1.93437e-09
-1.95603e-09
-1.97737e-09
-1.99878e-09
-2.0209e-09
-2.04237e-09
-2.0655e-09
-2.08926e-09
-2.11467e-09
-2.14263e-09
-2.17461e-09
-2.21237e-09
-2.2596e-09
-2.32021e-09
-2.39917e-09
-2.50625e-09
-2.65214e-09
-2.85469e-09
-3.13753e-09
-3.53446e-09
-4.09006e-09
-4.86244e-09
-5.92853e-09
-7.38294e-09
-9.21869e-09
-1.11346e-08
-1.47086e-08
-1.82235e-08
-6.25421e-10
1.06352e-09
-5.49941e-10
-6.79053e-10
-7.05421e-10
-7.36942e-10
-7.7283e-10
-8.09587e-10
-8.46181e-10
-8.80886e-10
-9.1457e-10
-9.45677e-10
-9.74586e-10
-1.00152e-09
-1.02716e-09
-1.05156e-09
-1.07552e-09
-1.09876e-09
-1.12192e-09
-1.14434e-09
-1.16611e-09
-1.18874e-09
-1.21174e-09
-1.23367e-09
-1.25607e-09
-1.27844e-09
-1.30043e-09
-1.32266e-09
-1.3446e-09
-1.36638e-09
-1.38848e-09
-1.41046e-09
-1.43301e-09
-1.4547e-09
-1.47673e-09
-1.49893e-09
-1.52126e-09
-1.54222e-09
-1.56391e-09
-1.58579e-09
-1.60781e-09
-1.6299e-09
-1.65233e-09
-1.67432e-09
-1.69688e-09
-1.71906e-09
-1.74108e-09
-1.76256e-09
-1.78443e-09
-1.80639e-09
-1.82793e-09
-1.84987e-09
-1.87102e-09
-1.8931e-09
-1.91456e-09
-1.93619e-09
-1.95751e-09
-1.97876e-09
-1.99968e-09
-2.0226e-09
-2.04458e-09
-2.06689e-09
-2.09107e-09
-2.11674e-09
-2.14491e-09
-2.17703e-09
-2.21488e-09
-2.262e-09
-2.32278e-09
-2.40081e-09
-2.50718e-09
-2.65228e-09
-2.85336e-09
-3.13336e-09
-3.52624e-09
-4.07504e-09
-4.83933e-09
-5.89436e-09
-7.33923e-09
-9.41878e-09
-1.36682e-08
-1.46901e-08
-1.83113e-08
-5.3802e-10
-1.42377e-09
-7.77013e-10
-6.87558e-10
-7.07076e-10
-7.38924e-10
-7.74032e-10
-8.10127e-10
-8.45609e-10
-8.80617e-10
-9.13357e-10
-9.44588e-10
-9.73134e-10
-9.99833e-10
-1.02534e-09
-1.04974e-09
-1.07349e-09
-1.09734e-09
-1.12027e-09
-1.14259e-09
-1.16581e-09
-1.18848e-09
-1.20989e-09
-1.23252e-09
-1.25447e-09
-1.27685e-09
-1.2988e-09
-1.32081e-09
-1.34265e-09
-1.36471e-09
-1.3868e-09
-1.40902e-09
-1.43092e-09
-1.4531e-09
-1.47527e-09
-1.49724e-09
-1.51945e-09
-1.54219e-09
-1.56384e-09
-1.58599e-09
-1.60776e-09
-1.62972e-09
-1.65235e-09
-1.67423e-09
-1.69553e-09
-1.71742e-09
-1.73893e-09
-1.76094e-09
-1.78273e-09
-1.80497e-09
-1.82644e-09
-1.84735e-09
-1.86989e-09
-1.89135e-09
-1.91309e-09
-1.93391e-09
-1.95601e-09
-1.97772e-09
-1.99981e-09
-2.0212e-09
-2.04347e-09
-2.06624e-09
-2.09009e-09
-2.11604e-09
-2.14421e-09
-2.17571e-09
-2.21428e-09
-2.26157e-09
-2.32189e-09
-2.40055e-09
-2.50631e-09
-2.64997e-09
-2.84884e-09
-3.12534e-09
-3.51216e-09
-4.05309e-09
-4.80619e-09
-5.84718e-09
-7.26952e-09
-9.09069e-09
-1.114e-08
-1.44638e-08
-9.90863e-10
-8.13221e-10
-6.92604e-10
-7.07083e-10
-7.43773e-10
-7.78379e-10
-8.14239e-10
-8.49227e-10
-8.8336e-10
-9.15792e-10
-9.46088e-10
-9.74951e-10
-1.00186e-09
-1.02823e-09
-1.05231e-09
-1.0769e-09
-1.09952e-09
-1.12231e-09
-1.14507e-09
-1.16848e-09
-1.19056e-09
-1.21324e-09
-1.23527e-09
-1.25677e-09
-1.27882e-09
-1.30101e-09
-1.32313e-09
-1.34531e-09
-1.3676e-09
-1.3892e-09
-1.41147e-09
-1.43349e-09
-1.4554e-09
-1.47729e-09
-1.49949e-09
-1.52174e-09
-1.5444e-09
-1.56682e-09
-1.5882e-09
-1.61015e-09
-1.63273e-09
-1.65451e-09
-1.67633e-09
-1.69753e-09
-1.71972e-09
-1.74229e-09
-1.76331e-09
-1.78554e-09
-1.80708e-09
-1.82863e-09
-1.85166e-09
-1.8727e-09
-1.89363e-09
-1.91558e-09
-1.93786e-09
-1.95863e-09
-1.98016e-09
-2.00187e-09
-2.02448e-09
-2.04562e-09
-2.0695e-09
-2.09307e-09
-2.11875e-09
-2.14687e-09
-2.17994e-09
-2.21768e-09
-2.26452e-09
-2.32407e-09
-2.40297e-09
-2.5063e-09
-2.64835e-09
-2.84358e-09
-3.11534e-09
-3.4944e-09
-4.02602e-09
-4.76543e-09
-5.7906e-09
-7.18753e-09
-8.95691e-09
-1.14295e-08
2.62558e-12
-9.67259e-10
-6.82516e-10
-6.98491e-10
-7.37361e-10
-7.74391e-10
-8.10958e-10
-8.45815e-10
-8.81132e-10
-9.1373e-10
-9.44794e-10
-9.73351e-10
-9.99986e-10
-1.02524e-09
-1.05026e-09
-1.07316e-09
-1.0977e-09
-1.12072e-09
-1.14328e-09
-1.16638e-09
-1.18839e-09
-1.21001e-09
-1.23189e-09
-1.25501e-09
-1.27778e-09
-1.29911e-09
-1.32107e-09
-1.34321e-09
-1.36359e-09
-1.38722e-09
-1.41012e-09
-1.43152e-09
-1.45356e-09
-1.47599e-09
-1.49759e-09
-1.51991e-09
-1.54293e-09
-1.56459e-09
-1.58635e-09
-1.60796e-09
-1.63022e-09
-1.65135e-09
-1.67415e-09
-1.69592e-09
-1.71786e-09
-1.73833e-09
-1.76167e-09
-1.78307e-09
-1.80582e-09
-1.82703e-09
-1.84824e-09
-1.86933e-09
-1.89227e-09
-1.91444e-09
-1.93522e-09
-1.95694e-09
-1.97863e-09
-2.00061e-09
-2.02152e-09
-2.04465e-09
-2.06788e-09
-2.09184e-09
-2.11757e-09
-2.14643e-09
-2.17635e-09
-2.21583e-09
-2.26122e-09
-2.32194e-09
-2.3984e-09
-2.5005e-09
-2.63924e-09
-2.83263e-09
-3.09789e-09
-3.47176e-09
-3.99226e-09
-4.71615e-09
-5.7244e-09
-7.09678e-09
-8.65668e-09
-1.22941e-08
2.29278e-11
-7.02595e-10
-6.85251e-10
-7.11826e-10
-7.41607e-10
-7.77817e-10
-8.13481e-10
-8.48113e-10
-8.81713e-10
-9.13404e-10
-9.43163e-10
-9.72437e-10
-9.99707e-10
-1.02583e-09
-1.05041e-09
-1.07367e-09
-1.09752e-09
-1.12048e-09
-1.14449e-09
-1.16525e-09
-1.18823e-09
-1.21051e-09
-1.23262e-09
-1.25375e-09
-1.27736e-09
-1.29898e-09
-1.32139e-09
-1.34245e-09
-1.36471e-09
-1.38792e-09
-1.40905e-09
-1.43124e-09
-1.45232e-09
-1.47546e-09
-1.49757e-09
-1.51924e-09
-1.54062e-09
-1.56275e-09
-1.58522e-09
-1.60708e-09
-1.62825e-09
-1.65094e-09
-1.67252e-09
-1.69515e-09
-1.71747e-09
-1.73819e-09
-1.76095e-09
-1.78182e-09
-1.80398e-09
-1.82598e-09
-1.84696e-09
-1.86852e-09
-1.88975e-09
-1.91047e-09
-1.93136e-09
-1.95327e-09
-1.9727e-09
-1.99197e-09
-2.01269e-09
-2.034e-09
-2.05348e-09
-2.07352e-09
-2.09482e-09
-2.11686e-09
-2.14059e-09
-2.16872e-09
-2.20188e-09
-2.24317e-09
-2.30081e-09
-2.37452e-09
-2.47479e-09
-2.62057e-09
-2.82096e-09
-3.10995e-09
-3.51908e-09
-4.102e-09
-4.93683e-09
-6.11916e-09
-7.75179e-09
-1.0904e-08
-1.10016e-09
-1.21399e-09
-6.53489e-10
-6.8327e-10
-7.1601e-10
-7.48556e-10
-7.81878e-10
-8.16156e-10
-8.50031e-10
-8.8242e-10
-9.14597e-10
-9.44891e-10
-9.73371e-10
-1.00168e-09
-1.0268e-09
-1.05204e-09
-1.0762e-09
-1.09907e-09
-1.12217e-09
-1.14504e-09
-1.16752e-09
-1.18923e-09
-1.21208e-09
-1.23438e-09
-1.25696e-09
-1.27893e-09
-1.30052e-09
-1.32259e-09
-1.34511e-09
-1.36671e-09
-1.38912e-09
-1.41134e-09
-1.4327e-09
-1.45482e-09
-1.47683e-09
-1.49926e-09
-1.52053e-09
-1.54312e-09
-1.56533e-09
-1.58652e-09
-1.60876e-09
-1.6318e-09
-1.65263e-09
-1.67436e-09
-1.69739e-09
-1.71845e-09
-1.74054e-09
-1.76253e-09
-1.7842e-09
-1.80646e-09
-1.82683e-09
-1.84831e-09
-1.87029e-09
-1.89148e-09
-1.91264e-09
-1.93373e-09
-1.95379e-09
-1.97486e-09
-1.9956e-09
-2.01544e-09
-2.03584e-09
-2.05735e-09
-2.07713e-09
-2.09767e-09
-2.12075e-09
-2.14609e-09
-2.1747e-09
-2.21041e-09
-2.25529e-09
-2.31264e-09
-2.39087e-09
-2.49972e-09
-2.64984e-09
-2.86302e-09
-3.16662e-09
-3.59703e-09
-4.2103e-09
-5.08186e-09
-6.31653e-09
-8.05761e-09
-9.94991e-09
-1.25768e-08
-4.98298e-10
4.42054e-10
-6.05741e-10
-6.77792e-10
-7.11768e-10
-7.44297e-10
-7.77725e-10
-8.11591e-10
-8.45593e-10
-8.79588e-10
-9.11774e-10
-9.43275e-10
-9.73081e-10
-9.99667e-10
-1.0259e-09
-1.05079e-09
-1.07424e-09
-1.09835e-09
-1.12101e-09
-1.14334e-09
-1.16654e-09
-1.1887e-09
-1.21121e-09
-1.23335e-09
-1.25477e-09
-1.27693e-09
-1.299e-09
-1.32167e-09
-1.34341e-09
-1.36556e-09
-1.38752e-09
-1.40862e-09
-1.43137e-09
-1.45363e-09
-1.47568e-09
-1.49756e-09
-1.52013e-09
-1.54172e-09
-1.5633e-09
-1.58571e-09
-1.60765e-09
-1.63007e-09
-1.65158e-09
-1.67362e-09
-1.69467e-09
-1.71763e-09
-1.73899e-09
-1.76155e-09
-1.78298e-09
-1.80474e-09
-1.82643e-09
-1.84712e-09
-1.86921e-09
-1.89054e-09
-1.91221e-09
-1.93235e-09
-1.95275e-09
-1.97357e-09
-1.99449e-09
-2.01531e-09
-2.0356e-09
-2.05558e-09
-2.07687e-09
-2.0986e-09
-2.1223e-09
-2.14769e-09
-2.17832e-09
-2.21435e-09
-2.26239e-09
-2.32345e-09
-2.40596e-09
-2.51919e-09
-2.6798e-09
-2.90504e-09
-3.22651e-09
-3.68059e-09
-4.32428e-09
-5.23459e-09
-6.51623e-09
-8.34669e-09
-1.18751e-08
-1.30924e-08
-1.56375e-08
-5.08724e-10
-6.26025e-10
-6.2285e-10
-6.7547e-10
-7.07318e-10
-7.40498e-10
-7.74924e-10
-8.08741e-10
-8.45121e-10
-8.79016e-10
-9.1188e-10
-9.4379e-10
-9.71456e-10
-1.0001e-09
-1.02654e-09
-1.05068e-09
-1.0755e-09
-1.09767e-09
-1.12177e-09
-1.144e-09
-1.16633e-09
-1.18856e-09
-1.21013e-09
-1.2341e-09
-1.25635e-09
-1.27746e-09
-1.29927e-09
-1.32057e-09
-1.34423e-09
-1.36648e-09
-1.38798e-09
-1.40902e-09
-1.43158e-09
-1.45464e-09
-1.47707e-09
-1.49841e-09
-1.5184e-09
-1.54219e-09
-1.56401e-09
-1.58491e-09
-1.60666e-09
-1.63037e-09
-1.65143e-09
-1.67362e-09
-1.69665e-09
-1.71639e-09
-1.73901e-09
-1.76211e-09
-1.7836e-09
-1.80527e-09
-1.82521e-09
-1.84801e-09
-1.86977e-09
-1.89186e-09
-1.91078e-09
-1.93316e-09
-1.95419e-09
-1.97405e-09
-1.99585e-09
-2.01471e-09
-2.03665e-09
-2.05733e-09
-2.07782e-09
-2.10069e-09
-2.12353e-09
-2.15189e-09
-2.18253e-09
-2.22064e-09
-2.26999e-09
-2.33302e-09
-2.41994e-09
-2.54067e-09
-2.70835e-09
-2.94587e-09
-3.28345e-09
-3.75881e-09
-4.4312e-09
-5.37648e-09
-6.69913e-09
-8.55552e-09
-1.10572e-08
-1.33469e-08
-1.61447e-08
-5.56243e-10
-4.49139e-10
-5.7936e-10
-6.71805e-10
-7.04384e-10
-7.39585e-10
-7.76653e-10
-8.14081e-10
-8.48365e-10
-8.82809e-10
-9.15376e-10
-9.45177e-10
-9.7558e-10
-1.00122e-09
-1.02723e-09
-1.05299e-09
-1.07597e-09
-1.10073e-09
-1.12234e-09
-1.14461e-09
-1.16731e-09
-1.19017e-09
-1.21404e-09
-1.23459e-09
-1.25667e-09
-1.27819e-09
-1.30192e-09
-1.32439e-09
-1.34435e-09
-1.36696e-09
-1.389e-09
-1.41231e-09
-1.43399e-09
-1.4553e-09
-1.47638e-09
-1.49942e-09
-1.52357e-09
-1.54281e-09
-1.56536e-09
-1.58789e-09
-1.6106e-09
-1.6315e-09
-1.6541e-09
-1.67439e-09
-1.69727e-09
-1.72086e-09
-1.74204e-09
-1.76213e-09
-1.78393e-09
-1.8062e-09
-1.82954e-09
-1.85028e-09
-1.87061e-09
-1.89159e-09
-1.91494e-09
-1.93383e-09
-1.9551e-09
-1.9772e-09
-1.99694e-09
-2.01902e-09
-2.03792e-09
-2.05914e-09
-2.08154e-09
-2.10322e-09
-2.12968e-09
-2.15557e-09
-2.18778e-09
-2.22899e-09
-2.27874e-09
-2.34777e-09
-2.4396e-09
-2.56511e-09
-2.7416e-09
-2.99055e-09
-3.34232e-09
-3.83868e-09
-4.53749e-09
-5.51345e-09
-6.87115e-09
-8.81221e-09
-1.14774e-08
-1.35905e-08
-1.73319e-08
-6.20875e-10
-1.12512e-09
-6.686e-10
-6.82567e-10
-7.09154e-10
-7.46105e-10
-7.83349e-10
-8.1973e-10
-8.54207e-10
-8.87255e-10
-9.19249e-10
-9.50341e-10
-9.77623e-10
-1.00436e-09
-1.02989e-09
-1.05428e-09
-1.07813e-09
-1.10144e-09
-1.12456e-09
-1.14853e-09
-1.16944e-09
-1.19315e-09
-1.2148e-09
-1.23672e-09
-1.25898e-09
-1.28136e-09
-1.30265e-09
-1.32524e-09
-1.34789e-09
-1.36903e-09
-1.39062e-09
-1.41279e-09
-1.43624e-09
-1.45736e-09
-1.48056e-09
-1.50106e-09
-1.52449e-09
-1.54726e-09
-1.56801e-09
-1.5917e-09
-1.61306e-09
-1.63556e-09
-1.65758e-09
-1.67899e-09
-1.7001e-09
-1.72195e-09
-1.74279e-09
-1.76608e-09
-1.7874e-09
-1.80829e-09
-1.83053e-09
-1.85134e-09
-1.87217e-09
-1.89586e-09
-1.91548e-09
-1.93754e-09
-1.9573e-09
-1.97825e-09
-1.99954e-09
-2.01997e-09
-2.04203e-09
-2.06285e-09
-2.08547e-09
-2.10692e-09
-2.1327e-09
-2.15995e-09
-2.19515e-09
-2.23567e-09
-2.29047e-09
-2.3621e-09
-2.45699e-09
-2.58901e-09
-2.77279e-09
-3.03074e-09
-3.39487e-09
-3.90747e-09
-4.62795e-09
-5.63154e-09
-7.01632e-09
-8.91159e-09
-1.10376e-08
-1.39276e-08
-1.76238e-08
-6.4112e-10
-1.1941e-09
-7.00746e-10
-6.84626e-10
-7.11139e-10
-7.46675e-10
-7.83531e-10
-8.1934e-10
-8.53815e-10
-8.86034e-10
-9.18199e-10
-9.48692e-10
-9.76811e-10
-1.00305e-09
-1.02847e-09
-1.05306e-09
-1.0764e-09
-1.09997e-09
-1.12288e-09
-1.14632e-09
-1.16797e-09
-1.19132e-09
-1.21212e-09
-1.2348e-09
-1.25712e-09
-1.27866e-09
-1.30175e-09
-1.3232e-09
-1.34499e-09
-1.3674e-09
-1.38958e-09
-1.41234e-09
-1.43403e-09
-1.45659e-09
-1.47767e-09
-1.50068e-09
-1.52262e-09
-1.54542e-09
-1.56681e-09
-1.58975e-09
-1.61157e-09
-1.63384e-09
-1.6558e-09
-1.67735e-09
-1.69854e-09
-1.72028e-09
-1.74174e-09
-1.76401e-09
-1.78514e-09
-1.80628e-09
-1.82848e-09
-1.85032e-09
-1.87126e-09
-1.89314e-09
-1.91441e-09
-1.9349e-09
-1.95636e-09
-1.97741e-09
-1.99776e-09
-2.02011e-09
-2.04041e-09
-2.06217e-09
-2.08494e-09
-2.10736e-09
-2.1331e-09
-2.16209e-09
-2.19685e-09
-2.2406e-09
-2.29487e-09
-2.36897e-09
-2.46766e-09
-2.60357e-09
-2.79296e-09
-3.05872e-09
-3.43259e-09
-3.95854e-09
-4.69613e-09
-5.72106e-09
-7.12761e-09
-9.0167e-09
-1.1132e-08
-1.41829e-08
-1.78724e-08
-6.36678e-10
-8.3452e-10
-6.17589e-10
-6.79872e-10
-7.11063e-10
-7.46939e-10
-7.83365e-10
-8.19141e-10
-8.53622e-10
-8.86308e-10
-9.18507e-10
-9.4926e-10
-9.78562e-10
-1.00503e-09
-1.03031e-09
-1.05495e-09
-1.07841e-09
-1.102e-09
-1.12464e-09
-1.14658e-09
-1.16955e-09
-1.19162e-09
-1.21403e-09
-1.23654e-09
-1.25889e-09
-1.28073e-09
-1.30317e-09
-1.32519e-09
-1.34726e-09
-1.36902e-09
-1.39112e-09
-1.41278e-09
-1.43511e-09
-1.45692e-09
-1.47964e-09
-1.50091e-09
-1.52291e-09
-1.54477e-09
-1.56673e-09
-1.58894e-09
-1.61095e-09
-1.63317e-09
-1.65528e-09
-1.67688e-09
-1.69859e-09
-1.72082e-09
-1.74355e-09
-1.76429e-09
-1.78685e-09
-1.80817e-09
-1.829e-09
-1.85188e-09
-1.87277e-09
-1.89498e-09
-1.91614e-09
-1.93717e-09
-1.95808e-09
-1.97928e-09
-1.99993e-09
-2.02097e-09
-2.04241e-09
-2.06448e-09
-2.0863e-09
-2.11046e-09
-2.13705e-09
-2.1665e-09
-2.20216e-09
-2.24687e-09
-2.30386e-09
-2.37754e-09
-2.47872e-09
-2.61772e-09
-2.81129e-09
-3.08277e-09
-3.46486e-09
-4.00107e-09
-4.75201e-09
-5.7951e-09
-7.22613e-09
-9.2052e-09
-1.16349e-08
-1.51247e-08
-1.81242e-08
-6.39957e-10
-1.21385e-09
-7.42841e-10
-6.8273e-10
-7.10101e-10
-7.46075e-10
-7.82411e-10
-8.18182e-10
-8.52578e-10
-8.85471e-10
-9.17852e-10
-9.48788e-10
-9.77735e-10
-1.00452e-09
-1.02975e-09
-1.05357e-09
-1.07739e-09
-1.10084e-09
-1.12362e-09
-1.14659e-09
-1.16854e-09
-1.19145e-09
-1.21339e-09
-1.23568e-09
-1.2581e-09
-1.27953e-09
-1.30229e-09
-1.32348e-09
-1.3464e-09
-1.36793e-09
-1.39031e-09
-1.41232e-09
-1.43453e-09
-1.45654e-09
-1.47841e-09
-1.49995e-09
-1.52204e-09
-1.54388e-09
-1.56609e-09
-1.58815e-09
-1.61018e-09
-1.63234e-09
-1.65446e-09
-1.67598e-09
-1.69761e-09
-1.72001e-09
-1.74235e-09
-1.76392e-09
-1.78593e-09
-1.80768e-09
-1.82902e-09
-1.85103e-09
-1.87196e-09
-1.89427e-09
-1.9151e-09
-1.93664e-09
-1.95751e-09
-1.97845e-09
-1.99965e-09
-2.02111e-09
-2.04254e-09
-2.06456e-09
-2.08714e-09
-2.1111e-09
-2.13723e-09
-2.16809e-09
-2.20484e-09
-2.24987e-09
-2.30776e-09
-2.38412e-09
-2.48733e-09
-2.62925e-09
-2.8265e-09
-3.10287e-09
-3.49121e-09
-4.03594e-09
-4.79743e-09
-5.85271e-09
-7.29772e-09
-9.18908e-09
-1.13126e-08
-1.51855e-08
-1.83424e-08
-5.7125e-10
-4.15214e-10
-6.05625e-10
-6.77319e-10
-7.1041e-10
-7.45645e-10
-7.81848e-10
-8.17494e-10
-8.52039e-10
-8.85162e-10
-9.17628e-10
-9.48866e-10
-9.7795e-10
-1.00479e-09
-1.02988e-09
-1.05439e-09
-1.07825e-09
-1.10091e-09
-1.12424e-09
-1.14673e-09
-1.16858e-09
-1.19152e-09
-1.21353e-09
-1.2361e-09
-1.25804e-09
-1.28011e-09
-1.30234e-09
-1.32425e-09
-1.34633e-09
-1.3685e-09
-1.39046e-09
-1.41233e-09
-1.43448e-09
-1.45643e-09
-1.47786e-09
-1.49968e-09
-1.52169e-09
-1.54348e-09
-1.56581e-09
-1.58791e-09
-1.60992e-09
-1.63204e-09
-1.65414e-09
-1.67548e-09
-1.69721e-09
-1.7196e-09
-1.7421e-09
-1.76392e-09
-1.78596e-09
-1.80762e-09
-1.82924e-09
-1.85119e-09
-1.8729e-09
-1.89427e-09
-1.91544e-09
-1.93675e-09
-1.95801e-09
-1.97946e-09
-2.00025e-09
-2.02199e-09
-2.04329e-09
-2.06549e-09
-2.08826e-09
-2.11283e-09
-2.14026e-09
-2.17064e-09
-2.20791e-09
-2.25343e-09
-2.31235e-09
-2.39018e-09
-2.49493e-09
-2.63889e-09
-2.83895e-09
-3.11905e-09
-3.512e-09
-4.0628e-09
-4.83166e-09
-5.89607e-09
-7.35559e-09
-9.38083e-09
-1.21704e-08
-1.53924e-08
-1.84976e-08
-6.13706e-10
-8.48546e-10
-6.85681e-10
-6.79512e-10
-7.10088e-10
-7.4534e-10
-7.8156e-10
-8.17249e-10
-8.51782e-10
-8.84929e-10
-9.17443e-10
-9.4872e-10
-9.77932e-10
-1.00474e-09
-1.02972e-09
-1.05413e-09
-1.07808e-09
-1.10089e-09
-1.12377e-09
-1.14669e-09
-1.16853e-09
-1.19142e-09
-1.21336e-09
-1.23595e-09
-1.25792e-09
-1.28007e-09
-1.30199e-09
-1.32396e-09
-1.34624e-09
-1.36832e-09
-1.39025e-09
-1.41217e-09
-1.43416e-09
-1.45607e-09
-1.47755e-09
-1.4995e-09
-1.5216e-09
-1.54337e-09
-1.56574e-09
-1.58786e-09
-1.60985e-09
-1.63191e-09
-1.65395e-09
-1.67528e-09
-1.69701e-09
-1.71939e-09
-1.74172e-09
-1.76361e-09
-1.78579e-09
-1.8077e-09
-1.82921e-09
-1.85102e-09
-1.87273e-09
-1.89432e-09
-1.91559e-09
-1.93681e-09
-1.95828e-09
-1.97944e-09
-2.00079e-09
-2.02219e-09
-2.04397e-09
-2.06611e-09
-2.08909e-09
-2.11424e-09
-2.14151e-09
-2.17272e-09
-2.21029e-09
-2.2566e-09
-2.31621e-09
-2.39515e-09
-2.50096e-09
-2.64653e-09
-2.8485e-09
-3.13099e-09
-3.52703e-09
-4.08159e-09
-4.85471e-09
-5.92447e-09
-7.38858e-09
-9.34267e-09
-1.17887e-08
-1.53912e-08
-1.85941e-08
-6.21136e-10
-8.74361e-10
-6.87985e-10
-6.79557e-10
-7.10013e-10
-7.45332e-10
-7.81562e-10
-8.17244e-10
-8.51804e-10
-8.84923e-10
-9.17414e-10
-9.4873e-10
-9.77888e-10
-1.00479e-09
-1.02972e-09
-1.05405e-09
-1.0779e-09
-1.1009e-09
-1.12373e-09
-1.14669e-09
-1.16856e-09
-1.19141e-09
-1.21339e-09
-1.23589e-09
-1.25786e-09
-1.28007e-09
-1.30184e-09
-1.32407e-09
-1.34614e-09
-1.36839e-09
-1.39031e-09
-1.4122e-09
-1.43406e-09
-1.4561e-09
-1.47748e-09
-1.49941e-09
-1.52164e-09
-1.54328e-09
-1.56572e-09
-1.58784e-09
-1.60989e-09
-1.63184e-09
-1.65392e-09
-1.6753e-09
-1.69707e-09
-1.71943e-09
-1.74169e-09
-1.76364e-09
-1.78586e-09
-1.80774e-09
-1.82944e-09
-1.85105e-09
-1.87288e-09
-1.89438e-09
-1.91575e-09
-1.93692e-09
-1.9585e-09
-1.97968e-09
-2.00119e-09
-2.02278e-09
-2.04453e-09
-2.06695e-09
-2.09007e-09
-2.11539e-09
-2.143e-09
-2.17463e-09
-2.21229e-09
-2.25932e-09
-2.3195e-09
-2.39914e-09
-2.50579e-09
-2.65218e-09
-2.85521e-09
-3.13883e-09
-3.53617e-09
-4.09191e-09
-4.8663e-09
-5.93736e-09
-7.40285e-09
-9.35914e-09
-1.1831e-08
-1.54151e-08
-1.86306e-08
-5.67778e-10
-4.5928e-10
-6.06254e-10
-6.77667e-10
-7.10145e-10
-7.45707e-10
-7.8181e-10
-8.17503e-10
-8.52014e-10
-8.85122e-10
-9.17644e-10
-9.48838e-10
-9.7793e-10
-1.00485e-09
-1.02981e-09
-1.05417e-09
-1.07764e-09
-1.10088e-09
-1.12388e-09
-1.14662e-09
-1.16866e-09
-1.1914e-09
-1.21359e-09
-1.23577e-09
-1.25784e-09
-1.28012e-09
-1.30211e-09
-1.32416e-09
-1.34623e-09
-1.36843e-09
-1.39061e-09
-1.41221e-09
-1.43432e-09
-1.45629e-09
-1.47769e-09
-1.49954e-09
-1.52183e-09
-1.5433e-09
-1.56562e-09
-1.5877e-09
-1.60981e-09
-1.63187e-09
-1.65386e-09
-1.67545e-09
-1.69726e-09
-1.71976e-09
-1.74197e-09
-1.76395e-09
-1.78625e-09
-1.80788e-09
-1.82978e-09
-1.85121e-09
-1.8732e-09
-1.89466e-09
-1.91628e-09
-1.9373e-09
-1.95874e-09
-1.98007e-09
-2.00183e-09
-2.02356e-09
-2.04526e-09
-2.06783e-09
-2.09124e-09
-2.11654e-09
-2.14434e-09
-2.17635e-09
-2.21456e-09
-2.26154e-09
-2.3222e-09
-2.40208e-09
-2.50924e-09
-2.65584e-09
-2.85902e-09
-3.14249e-09
-3.53919e-09
-4.09376e-09
-4.86634e-09
-5.93478e-09
-7.39884e-09
-9.43174e-09
-1.22482e-08
-1.543e-08
-1.85946e-08
-6.64027e-10
-1.22238e-09
-7.33811e-10
-6.81987e-10
-7.10281e-10
-7.46001e-10
-7.82324e-10
-8.18166e-10
-8.5258e-10
-8.85482e-10
-9.17766e-10
-9.48782e-10
-9.77687e-10
-1.00463e-09
-1.0295e-09
-1.05406e-09
-1.07751e-09
-1.10073e-09
-1.12352e-09
-1.1465e-09
-1.16869e-09
-1.19122e-09
-1.2136e-09
-1.23558e-09
-1.2579e-09
-1.27987e-09
-1.30205e-09
-1.32396e-09
-1.34617e-09
-1.36798e-09
-1.39009e-09
-1.4121e-09
-1.43422e-09
-1.45627e-09
-1.47813e-09
-1.49985e-09
-1.52241e-09
-1.5436e-09
-1.56579e-09
-1.58791e-09
-1.61006e-09
-1.63217e-09
-1.65409e-09