/*--------------------------------*- C++ -*----------------------------------*\
| =========                 |                                                 |
| \\      /  F ield         | OpenFOAM: The Open Source CFD Toolbox           |
|  \\    /   O peration     | Version:  v1906                                 |
|   \\  /    A nd           | Web:      www.OpenFOAM.com                      |
|    \\/     M anipulation  |                                                 |
\*---------------------------------------------------------------------------*/
FoamFile
{
    version     2.0;
    format      ascii;
    class       volScalarField;
    location    "0.00034";
    object      p;
}
// * * * * * * * * * * * * * * * * * * * * * * * * * * * * * * * * * * * * * //

dimensions      [0 2 -2 0 0 0 0];


internalField   nonuniform List<scalar> 
243374
(
-16.3755
-56.013
-57.1367
-58.13
-59.0017
-59.5275
-59.8936
-60.1629
-60.391
-60.609
-60.8178
-61.0089
-61.1738
-61.3119
-61.4368
-61.5546
-61.657
-61.742
-61.7949
-61.7905
-61.7401
-61.6441
-61.4702
-61.2322
-60.9135
-60.4968
-59.9698
-59.2973
-58.4313
-57.3447
-55.9877
-54.2738
-52.1162
-49.4068
-45.9942
-41.7046
-36.3245
-29.5617
-21.0893
-10.5028
2.75308
19.3189
40.008
65.8591
98.0874
138.257
188.355
250.794
328.589
425.532
546.311
696.726
884.046
1117.26
1407.53
1768.75
2218.08
2776.81
3471.19
4333.64
5404.02
6731.17
8374.71
10407
12915.2
16003.3
19794.2
24429.8
30071.2
36894.8
45084.3
54816.1
66235.3
79418.9
94328.2
110749
128220
145918
162332
177767
-39.6456
-55.8189
-57.2148
-58.1566
-59.0082
-59.5323
-59.8964
-60.1621
-60.3874
-60.6047
-60.815
-61.008
-61.1733
-61.3086
-61.4296
-61.5451
-61.6468
-61.7309
-61.7807
-61.7721
-61.7185
-61.619
-61.4361
-61.1821
-60.859
-60.437
-59.8947
-59.202
-58.3101
-57.1947
-55.8043
-54.0477
-51.8359
-49.0572
-45.5558
-41.1558
-35.6407
-28.7093
-20.0257
-9.17695
4.4079
21.3845
42.5843
69.0732
102.096
143.258
194.595
258.581
338.303
437.654
561.441
715.613
907.628
1146.71
1444.32
1814.71
2275.52
2848.6
3560.95
4445.91
5544.44
6906.84
8594.47
10681.8
13258.8
16432.8
20330.1
25097.5
30901.1
37922.7
46351.2
56368.1
68120.9
81685.5
97017.5
113889
131819
149979
167063
182536
-47.1454
-55.7877
-57.3902
-58.2185
-59.0229
-59.5397
-59.9004
-60.1633
-60.3864
-60.6024
-60.8126
-61.0069
-61.1728
-61.3064
-61.4239
-61.5369
-61.6379
-61.7208
-61.7671
-61.7554
-61.7002
-61.5992
-61.4141
-61.1504
-60.8177
-60.3824
-59.825
-59.1125
-58.1965
-57.0537
-55.6302
-53.8327
-51.5699
-48.7248
-45.1383
-40.633
-34.9886
-27.8976
-19.0129
-7.91186
5.98596
23.3543
45.042
72.1352
105.916
148.026
200.545
266.006
347.569
449.216
575.876
733.636
930.134
1174.82
1479.44
1858.61
2330.4
2917.22
3646.79
4553.31
5678.88
7075.16
8805.23
10945.8
13589.4
16846.4
20847.5
25743.8
31706.7
38924.2
47591.4
57895.5
69988.9
83948.8
99727.7
117088
135529
154204
171833
187450
-54.297
-49.4622
-55.9381
-57.5119
-58.2998
-59.0445
-59.5494
-59.9051
-60.165
-60.3857
-60.5999
-60.8095
-61.0045
-61.1711
-61.3032
-61.4175
-61.5278
-61.6276
-61.7089
-61.7515
-61.7363
-61.6779
-61.5717
-61.386
-61.1166
-60.7731
-60.3255
-59.7537
-59.0218
-58.082
-56.9114
-55.4536
-53.6145
-51.3004
-48.3884
-44.7158
-40.1038
-34.3291
-27.077
-17.9885
-6.63185
7.58216
25.3464
47.5269
75.2306
109.777
152.847
206.561
273.515
356.94
460.912
590.477
751.871
952.909
1203.28
1515
1903.06
2385.99
2986.76
3733.81
4662.26
5815.34
7246.13
9019.53
11214.5
13926.2
17268.7
21376.6
26406.3
32534.9
39957.2
48875.7
59484.9
71943.4
86332.4
102604
120512
139538
158812
177046
192979
202137
-54.6939
-51.8429
-56.1293
-57.628
-58.3826
-59.0724
-59.5628
-59.9121
-60.1686
-60.387
-60.599
-60.8073
-61.0026
-61.1699
-61.301
-61.4125
-61.5202
-61.6186
-61.6986
-61.7382
-61.7197
-61.6585
-61.5502
-61.3602
-61.0846
-60.7303
-60.2707
-59.6849
-58.9343
-57.9716
-56.7735
-55.2813
-53.4011
-51.0372
-48.0603
-44.3037
-39.5875
-33.6856
-26.2764
-16.9884
-5.38194
9.14043
27.2908
49.9521
78.2516
113.546
157.554
212.435
280.846
366.09
472.333
604.739
769.685
975.162
1231.08
1549.76
1946.53
2440.36
3054.8
3819.01
4768.98
5949.09
7413.84
9229.94
11478.5
14257.8
17685.1
21899.4
27062.4
33357.5
40986.7
50161
61083.3
73920.3
88759.3
105554
124053
143723
163664
182552
198956
208565
214334
-55.0677
-53.4276
-56.3526
-57.7303
-58.4608
-59.1037
-59.5778
-59.9197
-60.1727
-60.3887
-60.5982
-60.8046
-60.9997
-61.1675
-61.2979
-61.4072
-61.5122
-61.6085
-61.6856
-61.7238
-61.703
-61.6392
-61.5287
-61.3353
-61.0534
-60.6886
-60.2175
-59.6186
-58.8503
-57.8659
-56.6412
-55.115
-53.1944
-50.7823
-47.743
-43.9056
-39.0887
-33.0639
-25.5029
-16.0219
-4.17423
10.6455
29.1683
52.2936
81.169
117.187
162.099
218.107
287.925
374.929
483.365
618.518
786.9
996.671
1257.96
1583.37
1988.57
2492.96
3120.66
3901.5
4872.38
6078.77
7576.6
9434.35
11735.4
14580.8
18091.4
22410.7
27705.7
34166.5
42003
51435.1
62675.8
75901.6
91208.2
108554
127684
148050
168725
188349
205316
215271
221095
-55.423
-54.5412
-56.5972
-57.8333
-58.535
-59.1379
-59.5951
-59.9288
-60.1782
-60.392
-60.5988
-60.8027
-60.997
-61.1654
-61.2961
-61.403
-61.5055
-61.5997
-61.6748
-61.7103
-61.6873
-61.6209
-61.5079
-61.3114
-61.0232
-60.6483
-60.1662
-59.5546
-58.7696
-57.7646
-56.5138
-54.9538
-52.9935
-50.5344
-47.4347
-43.5194
-38.6049
-32.4607
-24.7519
-15.0834
-3.00187
12.1059
30.9894
54.5651
83.9999
120.72
166.509
223.61
294.795
383.507
494.075
631.895
803.617
1017.56
1284.07
1616.03
2029.43
2544.11
3184.72
3981.8
4973.09
6205.17
7735.37
9633.96
11986.6
14897.1
18490.1
22913.5
28340.1
34967.1
43012.6
52706.6
64273.5
77901.6
93697.2
111626
131433
152557
174040
194473
212115
222361
228532
-55.7571
-55.3543
-56.8417
-57.9354
-58.6045
-59.1732
-59.6137
-59.9389
-60.1845
-60.3961
-60.6
-60.801
-60.9939
-61.1625
-61.2933
-61.3992
-61.4995
-61.5913
-61.6642
-61.6977
-61.6728
-61.6038
-61.4882
-61.2887
-60.9944
-60.61
-60.1176
-59.494
-58.6934
-57.6693
-56.3938
-54.8012
-52.8023
-50.2981
-47.141
-43.1523
-38.1455
-31.8875
-24.0379
-14.1912
-1.88793
13.4927
32.7184
56.722
86.6891
124.075
170.697
228.835
301.319
391.655
504.251
644.607
819.504
1037.42
1308.9
1647.09
2068.3
2592.79
3245.73
4058.3
5069.1
6325.77
7887.01
9824.84
12227.1
15200.5
18873.3
23398
28953.4
35743.6
43995.9
53951.1
65846.2
79883.1
96181.2
114716
135236
157167
179518
200805
219239
229813
236414
-56.0751
-55.9645
-57.0794
-58.0352
-58.6711
-59.2095
-59.6334
-59.9497
-60.1916
-60.401
-60.6018
-60.7995
-60.9905
-61.1591
-61.2904
-61.3958
-61.4941
-61.5834
-61.654
-61.6858
-61.6594
-61.5879
-61.4695
-61.267
-60.9669
-60.5735
-60.0716
-59.4366
-58.6213
-57.5792
-56.2804
-54.6563
-52.62
-50.072
-46.8603
-42.8022
-37.7079
-31.3412
-23.3567
-13.3402
-0.82613
14.8139
34.3651
58.7768
89.2518
127.272
174.687
233.813
307.535
399.421
513.951
656.725
834.652
1056.36
1332.59
1676.73
2105.41
2639.29
3304.02
4131.44
5160.97
6441.27
8032.39
10008.1
12458.4
15492.8
19243.3
23867.2
29549.2
36501
44959.5
55177.1
67405
81861.1
98680.3
117852
139130
161932
185229
207462
226826
237700
244627
-56.3655
-56.4283
-57.2998
-58.1341
-58.7352
-59.2462
-59.654
-59.9613
-60.1997
-60.407
-60.6048
-60.799
-60.9875
-61.1556
-61.2876
-61.3932
-61.4897
-61.5765
-61.6448
-61.6753
-61.6479
-61.5735
-61.4523
-61.2468
-60.9412
-60.5398
-60.0293
-59.3836
-58.5547
-57.4962
-56.1759
-54.5223
-52.4505
-49.8609
-46.598
-42.4762
-37.301
-30.8325
-22.7218
-12.5473
0.16227
16.043
35.897
60.6891
91.6374
130.248
178.399
238.445
313.32
406.65
522.983
668.012
848.763
1074
1354.67
1704.36
2140.02
2682.67
3358.44
4199.78
5246.87
6549.38
8168.63
10180
12675.8
15768.2
19592.7
24311.6
30115.8
37224.4
45884.5
56360.7
68919.7
83797.3
101147
120975
143045
166770
191085
214343
234791
245827
252912
-56.6318
-56.7895
-57.4987
-58.2306
-58.7964
-59.2823
-59.674
-59.9726
-60.2076
-60.4131
-60.6079
-60.7983
-60.9839
-61.1511
-61.2841
-61.3902
-61.4855
-61.5699
-61.6361
-61.6653
-61.6368
-61.5601
-61.4362
-61.227
-60.917
-60.5086
-59.9902
-59.3344
-58.4929
-57.4195
-56.0795
-54.3984
-52.293
-49.6637
-46.3528
-42.1723
-36.9226
-30.3592
-22.1306
-11.8092
1.08153
17.1854
37.3207
62.467
93.8558
133.015
181.85
242.752
318.699
413.375
531.387
678.514
861.895
1090.43
1375.23
1730.11
2172.28
2723.13
3409.23
4263.6
5327.18
6650.54
8296.29
10341.4
12880.3
16027.7
19923
24733.1
30655.7
37917.2
46775.3
57507.7
70397.9
85701.8
103594
124105
147010
171724
197144
221525
243273
254236
260687
-56.8491
-57.082
-57.6775
-58.3235
-58.8555
-59.3181
-59.6944
-59.9846
-60.2165
-60.4203
-60.6123
-60.7989
-60.9812
-61.1472
-61.281
-61.3881
-61.4826
-61.5649
-61.6291
-61.6572
-61.6276
-61.549
-61.4223
-61.21
-60.8955
-60.4814
-59.9551
-59.29
-58.4368
-57.3501
-55.9927
-54.2865
-52.1499
-49.4832
-46.128
-41.8945
-36.5774
-29.9271
-21.5902
-11.135
1.92054
18.2278
38.6198
64.0901
95.8813
135.54
185
246.684
323.612
419.517
539.067
688.112
873.899
1105.45
1394.03
1753.67
2201.82
2760.2
3455.8
4322.18
5400.96
6743.61
8413.9
10490.4
13069.4
16268.5
20230.2
25126.7
31163.3
38572.6
47623.2
58606.6
71824.9
87556.4
105999
127218
150998
176775
203376
228920
252928
262650
-57.3208
-57.8305
-58.4086
-58.9092
-59.3507
-59.7128
-59.9954
-60.2245
-60.4268
-60.6162
-60.7993
-60.9781
-61.1424
-61.2771
-61.3854
-61.4796
-61.5603
-61.6228
-61.6498
-61.6193
-61.539
-61.4098
-61.1946
-60.8759
-60.4568
-59.9245
-59.2508
-58.3866
-57.29
-55.9174
-54.189
-52.0246
-49.324
-45.9294
-41.6498
-36.274
-29.5471
-21.1151
-10.5427
2.65705
19.1424
39.7598
65.5144
97.6586
137.756
187.765
250.136
327.924
424.911
545.812
696.544
884.446
1118.66
1410.57
1774.4
2227.83
2792.85
3496.86
4373.88
5466.16
6825.96
8518.14
10622.7
13237.8
16483.3
20505.1
25480.6
31624.8
39174.8
48407.4
59630.5
73166.9
89320.9
108315
130231
154893
181718
209527
236217
261914
-57.5024
-57.9646
-58.4874
-58.9603
-59.3823
-59.7308
-60.0063
-60.2332
-60.4342
-60.6212
-60.8008
-60.9759
-61.1381
-61.2735
-61.3834
-61.4777
-61.5572
-61.6183
-61.6442
-61.6128
-61.5309
-61.3992
-61.1812
-60.859
-60.4355
-59.8982
-59.2167
-58.3432
-57.2374
-55.8499
-54.1012
-51.9112
-49.1787
-45.7475
-41.4256
-35.9962
-29.1989
-20.6792
-9.99956
3.33285
19.9823
40.8072
66.8236
99.293
139.795
190.31
253.315
331.898
429.883
552.033
704.325
894.185
1130.86
1425.87
1793.61
2251.95
2823.19
3535.09
4422.13
5527.19
6903.3
8616.44
10748.2
13398.6
16690.1
20772.8
25828.5
32075.7
39755.6
49165.8
60625.9
74476.6
91062.3
110623
133268
158864
186825
215939
243898
270492
-51.3906
-55.5157
-57.4998
-58.3532
-59.0485
-59.5355
-59.8957
-60.1761
-60.4157
-60.634
-60.8321
-61.011
-61.1756
-61.3295
-61.4751
-61.6042
-61.7075
-61.7953
-61.8628
-61.8799
-61.8437
-61.7641
-61.6136
-61.405
-61.1383
-60.7927
-60.346
-59.7772
-59.0407
-58.0951
-56.8995
-55.3929
-53.5034
-51.1415
-48.1718
-44.4309
-39.7283
-33.8067
-26.3789
-17.0965
-5.47799
9.04149
27.1834
49.8589
78.1312
113.371
157.31
212.061
280.277
365.257
471.09
602.861
766.892
971.016
1224.96
1540.79
1933.41
2421.28
3027.11
3778.92
4711.11
5865.79
7294.21
9058.55
11233.7
13909.2
17190.5
21200.5
26079.6
31983.1
39077
47526.9
57481.1
69041.5
82223.1
96898.4
112725
129056
144797
159028
-54.1759
-49.3908
-55.2209
-57.4334
-58.2996
-59.032
-59.5301
-59.893
-60.1716
-60.4093
-60.6282
-60.8289
-61.0098
-61.174
-61.3245
-61.4664
-61.5933
-61.6955
-61.7822
-61.8463
-61.8592
-61.818
-61.7293
-61.5782
-61.3598
-61.0841
-60.7239
-60.2589
-59.6672
-58.9018
-57.9231
-56.6895
-55.1347
-53.1833
-50.742
-47.6713
-43.8046
-38.9466
-32.8311
-25.1632
-15.5822
-3.58768
11.401
30.1269
53.5334
82.7149
119.085
164.436
220.949
291.362
379.086
488.345
624.39
793.757
1004.54
1266.81
1593.01
1998.6
2502.66
3128.7
3905.74
4869.4
6063.29
7540.54
9365.55
11615.9
14384.3
17779.8
21929.4
26977.5
33083.3
40415.6
49140.7
59403.3
71296.6
84818.8
99818.8
115923
132457
148355
162444
170410
-53.8682
-46.2944
-54.9762
-57.3684
-58.2416
-59.0181
-59.5269
-59.8919
-60.1685
-60.4039
-60.6228
-60.826
-61.0098
-61.1739
-61.3208
-61.458
-61.5825
-61.685
-61.7715
-61.8344
-61.84
-61.7962
-61.7051
-61.5458
-61.3188
-61.0336
-60.6585
-60.1753
-59.5601
-58.7657
-57.7558
-56.4865
-54.8858
-52.8748
-50.3557
-47.1862
-43.1972
-38.1874
-31.8844
-23.9841
-14.1124
-1.75263
13.6924
32.9869
57.1013
87.1647
124.634
171.357
229.584
302.132
392.524
505.114
645.314
819.87
1037.14
1307.49
1643.81
2062.02
2581.85
3227.6
4029.24
5023.63
6255.85
7780.86
9665.32
11989.5
14849.3
18357.4
22645.1
27861
34168.9
41740.9
50745.1
61324.9
73566.6
87455.2
102819
119258
136063
152135
166358
174461
178332
-53.6403
-41.7894
-54.7986
-57.2957
-58.189
-59.0082
-59.5255
-59.8915
-60.1653
-60.3979
-60.6166
-60.8223
-61.009
-61.1733
-61.3164
-61.4487
-61.5705
-61.6731
-61.7591
-61.8175
-61.8192
-61.7723
-61.6794
-61.5133
-61.2783
-60.9836
-60.5929
-60.0919
-59.4533
-58.6299
-57.5892
-56.2848
-54.6386
-52.5685
-49.9724
-46.7048
-42.5946
-37.4351
-30.9464
-22.8157
-12.6559
0.0655753
15.9629
35.8202
60.6357
91.5723
130.131
178.215
238.141
312.805
405.839
521.732
666.051
845.753
1069.45
1347.83
1694.18
2124.93
2660.42
3325.75
4151.87
5176.82
6447.2
8019.83
9963.61
12361.6
15312.8
18933.9
23360.4
28745.7
35258.2
43074.2
52364.5
63272.1
75878.3
90157
105918
122736
139874
156212
170431
178823
182292
-53.632
-36.2203
-54.8773
-57.2229
-58.1604
-59.0057
-59.5283
-59.8939
-60.1639
-60.3931
-60.6115
-60.8197
-61.0096
-61.1742
-61.3135
-61.4405
-61.5598
-61.6625
-61.7481
-61.8028
-61.8
-61.7506
-61.656
-61.4838
-61.2414
-60.9376
-60.5302
-60.0122
-59.3512
-58.4992
-57.4285
-56.0903
-54.3999
-52.2724
-49.602
-46.2389
-42.0108
-36.7067
-30.0379
-21.6829
-11.2436
1.8291
18.1654
38.5688
64.0651
95.8495
135.465
184.872
246.449
323.168
418.769
537.87
686.192
870.896
1100.84
1387.03
1743.14
2186.1
2736.85
3421.26
4271.25
5326.03
6633.71
8252.92
10254.8
12725.2
15766.4
19499
24062.8
29616.2
36332.7
44393.6
53973.3
65215.5
78198.7
92888.1
109077
126319
143870
160738
175130
182654
189667
-53.9573
-45.1261
-55.4371
-57.3005
-58.1949
-59.0158
-59.5348
-59.8975
-60.1634
-60.3893
-60.6067
-60.8161
-61.0083
-61.1736
-61.3096
-61.4316
-61.548
-61.6505
-61.735
-61.7855
-61.778
-61.7256
-61.6279
-61.4492
-61.1981
-60.88
-60.4609
-59.9241
-59.2385
-58.3561
-57.2523
-55.8755
-54.1361
-51.9462
-49.1945
-45.7273
-41.3706
-35.9089
-29.0444
-20.444
-9.69798
3.75783
20.5735
41.573
67.8101
100.52
141.293
192.145
255.525
334.492
432.9
555.51
708.212
898.391
1135.18
1429.93
1796.75
2253.09
2820.6
3525.98
4402.23
5489.91
6838.75
8509.48
10575.8
13126.6
16268.1
20125.4
24843.5
30586.9
37535.5
45876.7
55790.5
67424
80854
96039.6
112759
130544
148635
166001
180884
188997
194698
-54.3387
-49.4742
-55.8353
-57.4405
-58.2598
-59.0334
-59.5441
-59.9026
-60.1651
-60.3882
-60.6041
-60.8137
-61.0074
-61.1733
-61.3071
-61.4249
-61.5387
-61.6405
-61.7237
-61.7705
-61.7589
-61.7047
-61.6037
-61.4211
-61.1616
-60.832
-60.4002
-59.8473
-59.1402
-58.2313
-57.0976
-55.6849
-53.9012
-51.6557
-48.8313
-45.2707
-40.7987
-35.1961
-28.1572
-19.3367
-8.3151
5.48304
22.7273
44.2599
71.1581
104.696
146.506
198.65
263.644
344.624
445.543
571.294
727.919
923.001
1165.92
1468.34
1844.75
2313.1
2895.64
3619.85
4519.69
5636.93
7022.82
8739.98
10864.5
13488.1
16720.4
20691
25549.8
31467.1
38629.4
47230.5
57456.5
69459.3
83316.9
98984.5
116230
134564
153197
171047
186433
194874
200543
-54.4593
-50.726
-56.0116
-57.5527
-58.3345
-59.0557
-59.5548
-59.908
-60.1669
-60.3875
-60.6015
-60.8105
-61.0052
-61.1718
-61.3039
-61.4182
-61.5292
-61.6299
-61.7116
-61.7549
-61.7399
-61.6829
-61.5789
-61.3934
-61.1268
-60.7859
-60.3413
-59.7732
-59.0458
-58.1119
-56.9491
-55.5008
-53.6738
-51.375
-48.4809
-44.8306
-40.2473
-34.5091
-27.3026
-18.2696
-6.98194
7.14552
24.8022
46.8479
74.3821
108.718
151.528
204.917
271.466
354.385
457.725
586.503
746.913
946.723
1195.56
1505.37
1891.05
2371
2968.06
3710.49
4633.17
5779.06
7200.89
8963.17
11144.3
13838.8
17160.1
21241.9
26239.4
32329.1
39704.2
48566.3
59108.7
71489.8
85791.5
101967
119777
138714
157958
176383
192438
204435
207139
-54.7954
-52.4093
-56.202
-57.6577
-58.4102
-59.0826
-59.5683
-59.9152
-60.1706
-60.3888
-60.6005
-60.8082
-61.0032
-61.1705
-61.3015
-61.4128
-61.5211
-61.6202
-61.7003
-61.7405
-61.7225
-61.6623
-61.5558
-61.3669
-61.0934
-60.7415
-60.2844
-59.7019
-58.9552
-57.9975
-56.8063
-55.3223
-53.4526
-51.1021
-48.1407
-44.4031
-39.7116
-33.8416
-26.4721
-17.232
-5.68525
8.76207
26.8194
49.3639
77.5167
112.629
156.411
211.011
279.072
363.879
469.575
601.301
765.397
969.813
1224.41
1541.44
1936.15
2427.42
3038.66
3798.88
4743.9
5917.83
7374.91
9181.49
11418.3
14182.9
17592.1
21784.3
26920.1
33182.3
40771.9
49898.9
60765.6
73538.4
88305.2
105022
123442
143043
162973
182058
198794
210877
214187
-55.1888
-53.7423
-56.4225
-57.7592
-58.4837
-59.1141
-59.5836
-59.9229
-60.1748
-60.3906
-60.5998
-60.8056
-61.0003
-61.1682
-61.2986
-61.4075
-61.5132
-61.6103
-61.6883
-61.7262
-61.7056
-61.6425
-61.5334
-61.3414
-61.0612
-60.6984
-60.2294
-59.6331
-58.8681
-57.8879
-56.6689
-55.1495
-53.2379
-50.8374
-47.811
-43.9896
-39.1934
-33.1959
-25.6687
-16.228
-4.43077
10.3253
28.7693
51.796
80.5473
116.411
161.132
216.903
286.426
373.06
481.035
615.614
783.28
992.155
1252.33
1576.35
1979.82
2482.06
3107.08
3884.59
4851.32
6052.56
7544.01
9393.86
11685.2
14518.5
18014.3
22315.6
27588.6
34023.1
41828.1
51223.2
62421
75598.2
90851.5
108141
127219
147546
168240
188063
205534
217990
221549
-55.5599
-54.7524
-56.6613
-57.8594
-58.554
-59.1473
-59.6003
-59.9317
-60.1803
-60.394
-60.6004
-60.8036
-60.9974
-61.1658
-61.296
-61.403
-61.5064
-61.6012
-61.677
-61.7126
-61.6898
-61.6239
-61.5121
-61.317
-61.0302
-60.657
-60.1767
-59.5674
-58.7851
-57.7837
-56.5379
-54.9838
-53.0312
-50.5821
-47.4936
-43.5919
-38.6953
-32.5748
-24.8954
-15.2616
-3.22357
11.829
30.6445
54.1349
83.4629
120.049
165.674
222.569
293.5
381.894
492.065
629.39
800.495
1013.67
1279.23
1609.99
2021.9
2534.75
3173.07
3967.3
4955.06
6182.78
7707.59
9599.54
11944
14844.5
18425.3
22834
28242.8
34848.7
42869.6
52535.2
64070.3
77663.9
93423.9
111319
131100
152216
173754
194416
212697
225574
229295
-55.9091
-55.5007
-56.9018
-57.9591
-58.6211
-59.1822
-59.6189
-59.9417
-60.1867
-60.3982
-60.6017
-60.8018
-60.9943
-61.1628
-61.2933
-61.3993
-61.5004
-61.5926
-61.666
-61.6998
-61.6749
-61.6064
-61.4919
-61.2938
-61.0006
-60.6176
-60.1268
-59.5051
-58.7067
-57.6855
-56.4142
-54.8264
-52.8341
-50.3383
-47.1905
-43.2131
-38.2214
-31.9834
-24.1585
-14.3407
-2.07393
13.2602
32.4288
56.3611
86.2388
123.513
169.997
227.963
300.234
390.305
502.569
642.512
816.896
1034.17
1304.86
1642.05
2062.04
2585.01
3236.06
4046.3
5054.22
6307.35
7864.25
9796.76
12192.6
15158.1
18821.5
23335.1
28877.3
35652.5
43888
53825.1
65701.5
79721.2
96005.9
114535
135065
157034
179497
201110
220279
233612
237513
-56.2321
-56.0696
-57.1328
-58.0579
-58.6858
-59.2182
-59.6386
-59.9526
-60.1937
-60.403
-60.6035
-60.8003
-60.9908
-61.1592
-61.2903
-61.3958
-61.4945
-61.5845
-61.6555
-61.6876
-61.6608
-61.5901
-61.4728
-61.2717
-60.9722
-60.58
-60.0796
-59.4462
-58.6326
-57.593
-56.2976
-54.6775
-52.6466
-50.1056
-46.9014
-42.8528
-37.771
-31.4209
-23.4569
-13.4642
-0.980406
14.6208
34.1247
58.4777
88.8789
126.807
174.106
233.091
306.637
398.305
512.562
654.997
832.502
1053.68
1329.26
1672.59
2100.28
2632.92
3296.13
4121.69
5148.92
6426.42
8014.15
9985.74
12431.2
15459.8
19203.5
23819.6
29492.8
36435.4
44884.7
55094.5
67317.6
81775
98605.4
117803
139131
162019
185494
208152
228298
242122
246210
-56.5226
-56.5126
-57.3468
-58.1557
-58.7486
-59.2543
-59.659
-59.9643
-60.2019
-60.4093
-60.6067
-60.7998
-60.9877
-61.1556
-61.2875
-61.3932
-61.4903
-61.5776
-61.6463
-61.6772
-61.6504
-61.5755
-61.4553
-61.2514
-60.9455
-60.5449
-60.0357
-59.3912
-58.5635
-57.5069
-56.1892
-54.5386
-52.4707
-49.8861
-46.6286
-42.5138
-37.3481
-30.8921
-22.7966
-12.6394
0.0476804
15.8993
35.7182
60.4672
91.3612
129.903
177.969
237.911
312.657
405.828
521.962
666.743
847.187
1072.05
1352.24
1701.36
2136.31
2678.09
3352.8
4192.85
5238.39
6539.03
8156.09
10164.9
12657.8
15747
19568.1
24283.6
30084.5
37191.1
45851.8
56333.4
68905.4
83808.6
101201
121095
143266
167135
191700
215508
236730
251122
255407
-56.7749
-56.8662
-57.542
-58.2519
-58.8101
-59.2911
-59.6792
-59.9756
-60.21
-60.4155
-60.6098
-60.7992
-60.984
-61.1509
-61.2838
-61.39
-61.4859
-61.5707
-61.6371
-61.6667
-61.6382
-61.5613
-61.4379
-61.2285
-60.9197
-60.5115
-59.9948
-59.3399
-58.4992
-57.4266
-56.0885
-54.4093
-52.3062
-49.6797
-46.3719
-42.1959
-36.9524
-30.3969
-22.1777
-11.8669
1.00962
17.0948
37.2083
62.3282
93.6835
132.799
181.582
242.42
318.289
412.868
530.761
677.738
860.936
1089.25
1373.77
1728.32
2170.09
2720.46
3405.99
4259.7
5322.52
6645.05
8289.9
10334.2
12872.3
16019.4
19915.1
24726.7
30651.8
37918.8
46787.6
57539.7
70462.6
85819.6
103789
124406
147465
172373
198104
223155
245534
260239
265204
-56.979
-57.1556
-57.7195
-58.3457
-58.8707
-59.3279
-59.7
-59.9878
-60.2192
-60.423
-60.6144
-60.7999
-60.9811
-61.1465
-61.2804
-61.3878
-61.4829
-61.5654
-61.6297
-61.6581
-61.6284
-61.5498
-61.4235
-61.2114
-60.8974
-60.4845
-59.958
-59.293
-58.4406
-57.3526
-55.996
-54.2902
-52.1537
-49.487
-46.1317
-41.8993
-36.5839
-29.9352
-21.6002
-11.1466
1.90606
18.2088
38.5968
64.0629
95.8484
135.499
184.95
246.624
323.54
419.434
538.971
688
873.768
1105.31
1393.88
1753.51
2201.68
2760.09
3455.79
4322.35
5401.45
6744.63
8415.78
10493.7
13074.9
16277.5
20244.9
25149.6
31195.4
38618.6
47692.1
58713.1
71989
87807.5
106367
127729
151719
177710
204696
231124
254575
267423
275604
-57.1722
-57.3912
-57.8788
-58.4375
-58.9285
-59.3622
-59.7193
-59.9992
-60.2278
-60.4299
-60.6186
-60.8001
-60.9774
-61.1408
-61.2756
-61.3845
-61.4792
-61.56
-61.6223
-61.6492
-61.6184
-61.5379
-61.4085
-61.1929
-60.8739
-60.4546
-59.9217
-59.2465
-58.3792
-57.2814
-55.9083
-54.1778
-52.0096
-49.3039
-45.9032
-41.6179
-36.2353
-29.4986
-21.0542
-10.4666
2.75171
19.2595
39.9062
65.6988
97.8895
138.045
188.126
250.589
328.494
425.629
546.718
697.685
885.883
1120.47
1412.87
1777.33
2231.55
2797.62
3502.98
4381.77
5476.41
6839.35
8535.74
10646.1
13269.2
16525.9
20563.8
25560.6
31725.3
39301.2
48578.3
59869
73502.9
89790.9
108943
131081
156037
183236
211587
239531
263984
276860
286528
-57.3581
-57.6115
-58.0366
-58.5331
-58.9905
-59.4007
-59.7408
-60.0124
-60.2384
-60.439
-60.6249
-60.8023
-60.9746
-61.135
-61.2707
-61.3818
-61.4768
-61.5563
-61.6167
-61.6418
-61.6101
-61.5276
-61.3944
-61.1751
-60.8516
-60.4267
-59.8873
-59.2018
-58.3239
-57.2146
-55.8206
-54.063
-51.8617
-49.1139
-45.6657
-41.3258
-35.8742
-29.0464
-20.4891
-9.7644
3.62478
20.3449
41.2587
67.3879
99.9965
140.673
191.406
254.685
333.611
432.028
554.721
707.688
898.397
1136.14
1432.51
1801.94
2262.44
2836.41
3551.78
4443.25
5554
6937.41
8659.99
10804.1
13470.6
16783.5
20894.8
25988.2
32285
40027.4
49524.9
61102.1
75109.6
91915.8
111766
134788
160880
189454
219363
248739
274210
287183
297404
-57.5314
-57.7958
-58.1683
-58.6179
-59.0473
-59.4363
-59.7611
-60.0248
-60.2481
-60.4472
-60.6305
-60.8039
-60.9714
-61.1289
-61.2654
-61.3785
-61.4741
-61.553
-61.6122
-61.636
-61.6032
-61.5191
-61.3833
-61.1611
-60.8339
-60.4048
-59.8605
-59.1673
-58.2814
-57.1624
-55.7574
-53.9817
-51.7543
-48.9745
-45.4901
-41.1099
-35.6075
-28.712
-20.0705
-9.2442
4.2709
21.1481
42.2599
68.6391
101.558
142.621
193.839
257.726
337.411
436.782
560.666
715.122
907.702
1147.8
1447.12
1820.27
2285.44
2865.33
3588.18
4489.15
5612
7010.76
8753.02
10922.7
13622.2
16977.7
21144.6
26310.6
32702.1
40579.9
50259.6
62092.4
76411.2
93667.5
114117
137921
165022
194842
226214
257120
284550
298011
307471
-57.7025
-57.9495
-58.2888
-58.6969
-59.101
-59.4707
-59.7816
-60.0379
-60.2585
-60.4559
-60.6368
-60.8066
-60.9696
-61.1244
-61.2615
-61.3764
-61.4727
-61.5513
-61.6098
-61.6324
-61.5985
-61.5128
-61.3748
-61.15
-60.8194
-60.3865
-59.8381
-59.1404
-58.2439
-57.1165
-55.7008
-53.9084
-51.6571
-48.8484
-45.3322
-40.9157
-35.3671
-28.4108
-19.6948
-8.77769
4.85021
21.8677
43.1572
69.76
102.957
144.366
196.019
260.449
340.816
441.041
565.992
721.782
916.041
1158.25
1460.23
1836.72
2306.11
2891.32
3620.92
4530.46
5664.28
7076.89
8836.96
11030.2
13759.9
17154.7
21373.2
26607
33088.2
41090
50936.5
62999.8
77643.2
95355.1
116402
141013
169154
200285
233220
265849
295154
309930
319468
-57.8504
-58.0853
-58.395
-58.7685
-59.1502
-59.5024
-59.8004
-60.0498
-60.2677
-60.4634
-60.642
-60.8085
-60.9673
-61.1193
-61.2568
-61.3734
-61.4705
-61.5493
-61.6074
-61.629
-61.5938
-61.5066
-61.3668
-61.1399
-60.8061
-60.3696
-59.8169
-59.1122
-58.2106
-57.0762
-55.6513
-53.8438
-51.5711
-48.7368
-45.1932
-40.7441
-35.1541
-28.144
-19.3626
-8.36589
5.36182
22.504
43.9511
70.7515
104.194
145.911
197.95
262.863
343.836
444.819
570.713
727.689
923.447
1167.54
1471.89
1851.36
2324.52
2914.51
3650.18
4567.43
5711.16
7136.16
8912.3
11127.6
13885.5
17316.9
21584.1
26882.5
33450.5
41571.2
51582.3
63885
78863.3
97000.4
118646
144081
173294
205794
240381
274827
306453
321696
332444
-57.975
-58.192
-58.4856
-58.8332
-59.1945
-59.531
-59.8178
-60.0614
-60.2768
-60.4708
-60.6476
-60.8113
-60.9663
-61.1158
-61.2535
-61.3713
-61.4693
-61.5487
-61.6068
-61.6275
-61.5911
-61.5027
-61.3614
-61.1327
-60.7965
-60.3569
-59.8005
-59.0907
-58.1841
-57.0437
-55.6112
-53.7911
-51.5005
-48.645
-45.0819
-40.6043
-34.9789
-27.9243
-19.0897
-8.0283
5.7815
23.0275
44.6044
71.5664
105.211
147.182
199.54
264.853
346.326
447.935
574.607
732.57
929.58
1175.26
1481.59
1863.58
2339.92
2933.96
3674.8
4598.66
5750.91
7186.2
8975.96
11213.2
13997.3
17463
21776.7
27138.2
33793.3
42036.5
52220.7
64757.6
80033
98607.1
120871
147161
177515
211490
247857
284074
318575
333577
-55.7297
-56.7735
-57.8777
-58.5994
-59.1559
-59.5828
-59.9228
-60.2047
-60.4494
-60.6632
-60.8484
-61.0169
-61.1853
-61.3544
-61.5165
-61.6564
-61.7645
-61.8562
-61.9327
-61.9643
-61.9461
-61.8918
-61.7822
-61.6189
-61.4026
-61.1226
-60.7622
-60.3024
-59.7029
-58.9164
-57.9054
-56.6283
-55.0332
-53.051
-50.5642
-47.4253
-43.472
-38.4804
-32.2009
-24.3488
-14.5296
-2.25736
13.085
32.2611
56.1783
86.0049
123.192
169.521
227.228
299.087
388.542
499.881
638.429
810.765
1025.05
1291.39
1622.26
2033.09
2542.85
3174.92
3957.97
4927.08
6124.97
7603.5
9425.36
11665.7
14414.2
17776.5
21875.5
26852.2
32864.1
40081.7
48679
58816.2
70607.9
84066.7
99016.5
114943
130892
146083
-55.6547
-55.3087
-56.5639
-57.7926
-58.5516
-59.132
-59.5708
-59.9156
-60.1984
-60.4431
-60.658
-60.8448
-61.0141
-61.1815
-61.3485
-61.5085
-61.6462
-61.7519
-61.8423
-61.9174
-61.9459
-61.9212
-61.8571
-61.7457
-61.5722
-61.3453
-61.0522
-60.6745
-60.1929
-59.5656
-58.7446
-57.6926
-56.3655
-54.7068
-52.6444
-50.0566
-46.7913
-42.6805
-37.4921
-30.9679
-22.8129
-12.6138
0.132837
16.0668
35.9829
60.8205
91.7922
130.407
178.515
238.443
313.073
405.985
521.639
665.566
844.609
1067.26
1344.03
1687.92
2114.97
2644.95
3302.2
4116.58
5124.63
6370.84
7909.17
9804.82
12135.9
14995.1
18491.4
22751.3
27917.9
34149.6
41614.7
50479.7
60889.4
72932.9
86587.5
101634
117533
133306
147862
155888
-55.3844
-54.6535
-56.3269
-57.7184
-58.5056
-59.1103
-59.5607
-59.9096
-60.1923
-60.436
-60.652
-60.8416
-61.0133
-61.1798
-61.3437
-61.5003
-61.6357
-61.7405
-61.8304
-61.9041
-61.9305
-61.9019
-61.8328
-61.7105
-61.5269
-61.2894
-60.9826
-60.5865
-60.0817
-59.4252
-58.5703
-57.479
-56.1032
-54.3825
-52.2394
-49.5488
-46.1556
-41.8851
-36.4987
-29.7309
-21.2719
-10.6904
2.53395
19.063
39.7226
65.4858
97.608
137.657
187.554
249.714
327.133
423.524
543.519
692.858
878.651
1109.72
1397
1754
2197.4
2747.76
3430.4
4276.4
5323.78
6618.81
8217.65
10188.1
12611.1
15582.8
19215.7
23639.7
29001.1
35459.5
43181.7
52328.1
63030.2
75354.6
89246.9
104451
120395
136065
150383
158848
163828
-55.0487
-53.8358
-56.0576
-57.6387
-58.4539
-59.0871
-59.5504
-59.9035
-60.1854
-60.4278
-60.6448
-60.8375
-61.0118
-61.1775
-61.3377
-61.4903
-61.6234
-61.7274
-61.8164
-61.8884
-61.9113
-61.8798
-61.806
-61.6738
-61.4808
-61.2326
-60.9117
-60.4971
-59.9687
-59.2826
-58.3941
-57.2641
-55.84
-54.0571
-51.8332
-49.0395
-45.5177
-41.087
-35.5024
-28.4906
-19.7273
-8.76219
4.94114
22.0668
43.4721
70.1633
103.439
144.926
196.617
261.016
341.231
441.114
565.462
720.233
912.801
1152.33
1450.15
1820.31
2280.13
2850.98
3559.15
4436.96
5523.92
6868.13
8527.95
10573.7
13089.6
16175.1
19946.4
24537.1
30096.7
36786.6
44772.7
54210.3
65218.6
77843.6
92002
107403
123451
139113
153141
161752
165539
-54.7075
-52.6616
-55.7734
-57.5598
-58.3985
-59.0652
-59.5424
-59.8995
-60.18
-60.4204
-60.6383
-60.8346
-61.0117
-61.1766
-61.3328
-61.4811
-61.6118
-61.7152
-61.8037
-61.8736
-61.8926
-61.8582
-61.7801
-61.6381
-61.436
-61.1757
-60.8398
-60.4055
-59.8526
-59.1357
-58.2124
-57.0429
-55.5689
-53.7216
-51.4142
-48.5137
-44.8588
-40.2631
-34.4735
-27.2094
-18.1318
-6.7698
7.4288
25.171
47.3482
74.9993
109.466
152.441
205.99
272.705
355.812
459.308
588.162
748.554
948.136
1196.42
1505.17
1888.96
2365.81
2957.89
3692.56
4603.38
5731.46
7126.8
8850.09
10974.4
13587.2
16791.6
20707.8
25473.4
31241.6
38176.5
46443.4
56193.3
67534.4
80493.2
94959.1
110609
126820
142602
156478
163926
170323
-54.3177
-51.192
-55.5093
-57.4901
-58.3485
-59.0477
-59.5366
-59.8965
-60.1747
-60.4127
-60.6311
-60.8306
-61.0107
-61.1751
-61.327
-61.4703
-61.5984
-61.7018
-61.7897
-61.8566
-61.8699
-61.8319
-61.7476
-61.5981
-61.3847
-61.115
-60.7628
-60.3074
-59.7277
-58.9777
-58.0182
-56.8074
-55.2808
-53.3651
-50.9686
-47.9546
-44.159
-39.3887
-33.3827
-25.8516
-16.4403
-4.65802
10.0654
28.461
51.454
80.1202
115.851
160.403
215.921
285.091
371.266
478.592
612.224
778.58
985.609
1243.18
1563.54
1961.84
2456.79
3071.49
3834.38
4780.42
5952.39
7402.4
9193.62
11402.2
14119
17451.4
21524.1
26479.2
32474.3
39676.3
48251.6
58346.8
70060.2
83399.5
98227.6
114191
130654
146648
160778
170724
173891
-54.0202
-49.5743
-55.3105
-57.4493
-58.3088
-59.0371
-59.5349
-59.8963
-60.1722
-60.4076
-60.6262
-60.8281
-61.0109
-61.1751
-61.3231
-61.4616
-61.5873
-61.6907
-61.778
-61.8412
-61.8497
-61.8089
-61.72
-61.5632
-61.3405
-61.0609
-60.6938
-60.219
-59.6145
-58.834
-57.8414
-56.5927
-55.0175
-53.0387
-50.5598
-47.4413
-43.5163
-38.5856
-32.381
-24.6041
-14.8852
-2.71627
12.4901
31.4871
55.2295
84.8288
121.722
167.727