/*--------------------------------*- C++ -*----------------------------------*\
| =========                 |                                                 |
| \\      /  F ield         | OpenFOAM: The Open Source CFD Toolbox           |
|  \\    /   O peration     | Version:  v1906                                 |
|   \\  /    A nd           | Web:      www.OpenFOAM.com                      |
|    \\/     M anipulation  |                                                 |
\*---------------------------------------------------------------------------*/
FoamFile
{
    version     2.0;
    format      ascii;
    class       volScalarField;
    location    "0.00016";
    object      p;
}
// * * * * * * * * * * * * * * * * * * * * * * * * * * * * * * * * * * * * * //

dimensions      [0 2 -2 0 0 0 0];


internalField   nonuniform List<scalar> 
243374
(
-0.00153214
-0.00134872
-0.00170521
-0.00154372
-0.00156705
-0.00155882
-0.00156213
-0.00156402
-0.00157254
-0.00158373
-0.00159622
-0.00160808
-0.00162037
-0.00163312
-0.00164448
-0.00165262
-0.00165819
-0.00166171
-0.00166325
-0.00166291
-0.00165878
-0.0016502
-0.00163655
-0.00161817
-0.00159547
-0.00156717
-0.00153139
-0.00148725
-0.00143324
-0.00136549
-0.00128099
-0.00117867
-0.00105272
-0.000895228
-0.00069925
-0.000455702
-0.000151981
0.000225835
0.000695679
0.00128113
0.0020104
0.00291867
0.00405064
0.00545994
0.0072161
0.00940911
0.0121444
0.0155456
0.0197804
0.0250619
0.0316491
0.0398559
0.0500678
0.062785
0.0786298
0.0983607
0.122959
0.153561
0.191644
0.23901
0.297949
0.371113
0.461935
0.57481
0.714657
0.887157
1.09953
1.36029
1.6802
2.06655
2.54405
3.11658
3.7929
4.58584
5.49904
6.52646
7.64661
8.80817
9.91341
11.0315
-0.00107382
-0.000783375
-0.00106862
-0.000914314
-0.000936512
-0.000924798
-0.000925286
-0.000925514
-0.000933571
-0.000944668
-0.000956951
-0.000968511
-0.000980884
-0.000993757
-0.00100448
-0.0010123
-0.00101783
-0.00102135
-0.00102282
-0.00102246
-0.00101827
-0.00100961
-0.000995825
-0.000977308
-0.000954407
-0.000925815
-0.0008897
-0.000845176
-0.000790736
-0.000722292
-0.000636856
-0.000533627
-0.000406619
-0.000247638
-4.97386e-05
0.00019624
0.000503044
0.00088457
0.0013588
0.0019497
0.00268576
0.00360237
0.00474486
0.00616743
0.00794016
0.0101542
0.0129153
0.0163481
0.0206214
0.0259507
0.0326011
0.0408863
0.0511893
0.0640228
0.080022
0.0999435
0.124776
0.155673
0.194137
0.241943
0.301459
0.375331
0.467086
0.581111
0.722305
0.896631
1.11137
1.37528
1.70042
2.09247
2.5723
3.14297
3.82287
4.61869
5.5332
6.55924
7.67442
8.83344
9.94661
11.0392
-0.00212885
-0.00149658
-0.00185709
-0.00168296
-0.00170422
-0.00169129
-0.00169164
-0.00169114
-0.00169863
-0.00171019
-0.00172304
-0.00173477
-0.00174765
-0.00176081
-0.0017711
-0.00177862
-0.00178415
-0.00178769
-0.00178911
-0.00178874
-0.00178445
-0.00177569
-0.00176187
-0.00174322
-0.00172007
-0.00169118
-0.00165475
-0.00160993
-0.00155512
-0.0014862
-0.00140015
-0.00129617
-0.00116822
-0.00100804
-0.000808578
-0.000560665
-0.000251389
0.000133179
0.000611017
0.00120628
0.00194775
0.00287105
0.00402198
0.00545525
0.00724156
0.00947282
0.0122547
0.0157126
0.0200165
0.0253839
0.0320855
0.0404345
0.0508075
0.0637317
0.0798567
0.0999312
0.124948
0.156079
0.194835
0.243021
0.302996
0.377403
0.46987
0.584725
0.726887
0.902344
1.11812
1.38292
1.70959
2.10786
2.58953
3.16516
3.84926
4.6488
5.566
6.59294
7.70627
8.86093
9.97702
11.0247
-0.00186549
-0.00156863
-0.000772652
-0.00107916
-0.000906341
-0.000928641
-0.000916082
-0.000916973
-0.000916528
-0.000924688
-0.000937283
-0.000949563
-0.000960919
-0.000973742
-0.000986989
-0.000996743
-0.00100406
-0.00100966
-0.00101326
-0.00101459
-0.00101413
-0.0010098
-0.00100101
-0.000987176
-0.000968523
-0.000945185
-0.000915968
-0.000879232
-0.000834083
-0.000778865
-0.000709409
-0.00062269
-0.000517993
-0.000389147
-0.000227732
-2.66163e-05
0.000223371
0.000535255
0.000923043
0.00140463
0.00200446
0.00275168
0.0036819
0.00484157
0.00628617
0.00808671
0.0103358
0.0131393
0.0166236
0.0209596
0.0263676
0.033123
0.0415392
0.0519848
0.0650019
0.0812582
0.101494
0.126703
0.158086
0.19716
0.245753
0.306237
0.38122
0.47449
0.590305
0.733999
0.911541
1.12899
1.39822
1.72467
2.12529
2.60979
3.18981
3.87799
4.68175
5.60277
6.63246
7.74669
8.89974
10.0172
11.0133
11.6238
-0.00240637
-0.00219827
-0.00143199
-0.00178848
-0.00159725
-0.0016149
-0.00159747
-0.00159583
-0.00159271
-0.00159903
-0.00161017
-0.00162314
-0.00163478
-0.00164758
-0.0016607
-0.00167033
-0.00167746
-0.00168282
-0.0016863
-0.0016875
-0.00168692
-0.00168243
-0.00167355
-0.00165971
-0.00164095
-0.00161737
-0.00158785
-0.00155085
-0.00150544
-0.0014499
-0.0013801
-0.00129296
-0.00118772
-0.00105802
-0.000895614
-0.000693277
-0.000441674
-0.000127762
0.000262482
0.000747051
0.00135046
0.00210206
0.00303773
0.00420423
0.00565764
0.00746946
0.00973256
0.0125529
0.016058
0.0204192
0.0258598
0.0326567
0.0411239
0.0516353
0.0647371
0.0810986
0.101464
0.12682
0.158405
0.197732
0.246633
0.307518
0.382871
0.476705
0.593039
0.737552
0.915635
1.13629
1.407
1.73696
2.14029
2.62822
3.21263
3.90549
4.71434
5.64058
6.67512
7.79327
8.94864
10.0678
11.062
11.6871
12.05
-0.00231312
-0.00180601
-0.000974062
-0.00130105
-0.00111126
-0.00113144
-0.00111669
-0.00111846
-0.00111609
-0.00112303
-0.00113415
-0.00114603
-0.00115808
-0.00117074
-0.0011837
-0.00119341
-0.0012007
-0.00120612
-0.00120958
-0.00121066
-0.00120999
-0.00120543
-0.00119656
-0.00118281
-0.00116407
-0.00114029
-0.00111051
-0.00107323
-0.00102754
-0.000971688
-0.000901553
-0.000813956
-0.000708184
-0.000577846
-0.000414529
-0.000210877
4.23099e-05
0.000358235
0.000750982
0.00123837
0.00184527
0.00260126
0.0035422
0.00471538
0.00617755
0.00800044
0.0102772
0.0131141
0.0166398
0.0210261
0.0264994
0.0333374
0.0418554
0.0524325
0.0656144
0.0820779
0.102575
0.12808
0.159869
0.199459
0.248682
0.310049
0.38591
0.480432
0.597779
0.742634
0.922087
1.14376
1.4161
1.74881
2.1548
2.64611
3.23482
3.93268
4.74731
5.68
6.72141
7.8464
9.00811
10.1325
11.1253
11.7569
12.1286
-0.002312
-0.00205188
-0.00122957
-0.00156997
-0.00137155
-0.00138893
-0.00137109
-0.00137016
-0.00136709
-0.00137322
-0.00138402
-0.00139586
-0.00140796
-0.00142055
-0.00143325
-0.00144286
-0.00145014
-0.00145535
-0.00145872
-0.00145971
-0.00145887
-0.00145419
-0.00144527
-0.00143156
-0.00141281
-0.00138887
-0.00135883
-0.00132136
-0.00127547
-0.00121935
-0.00114899
-0.00106115
-0.00095508
-0.000824062
-0.000660055
-0.000455574
-0.000201168
0.000116238
0.000510711
0.00100025
0.00160974
0.00236892
0.00331376
0.0044918
0.00596041
0.00779149
0.0100782
0.0129271
0.0164681
0.0208727
0.0263694
0.033237
0.0417921
0.0524172
0.0656563
0.082193
0.102783
0.128412
0.160348
0.200112
0.249494
0.310968
0.387649
0.482705
0.600607
0.746505
0.927147
1.1501
1.42413
1.75931
2.16804
2.66287
3.25603
3.95937
4.78062
5.72117
6.77161
7.90653
9.07865
10.2124
11.2118
11.846
12.2256
-0.00231082
-0.00206137
-0.0012339
-0.00157184
-0.00137228
-0.00138922
-0.00137121
-0.00137024
-0.00136718
-0.00137336
-0.00138413
-0.00139596
-0.00140806
-0.00142065
-0.00143333
-0.001443
-0.00145033
-0.00145548
-0.00145874
-0.00145953
-0.00145855
-0.00145375
-0.0014448
-0.00143124
-0.0014125
-0.00138836
-0.00135812
-0.0013204
-0.00127428
-0.00121811
-0.00114767
-0.00105963
-0.000953299
-0.000821856
-0.000657307
-0.000452006
-0.000196588
0.000122066
0.000518058
0.00100929
0.0016209
0.00238277
0.00333085
0.00451305
0.00598714
0.00782515
0.0101203
0.0129795
0.0165335
0.0209539
0.0264706
0.0333638
0.041951
0.0526179
0.0659081
0.0825107
0.103185
0.128924
0.160991
0.200926
0.250527
0.312317
0.389271
0.484762
0.603203
0.74994
0.931535
1.15566
1.43123
1.76864
2.18002
2.67841
3.27612
3.98531
4.8139
5.76358
6.82507
7.97285
9.15882
10.3064
11.3193
11.9572
12.3449
-0.00236063
-0.00183483
-0.000987106
-0.00130666
-0.00111381
-0.00113276
-0.00111756
-0.00111924
-0.00111682
-0.00112368
-0.00113475
-0.00114662
-0.00115864
-0.00117125
-0.00118408
-0.00119378
-0.00120126
-0.0012065
-0.00120975
-0.00121049
-0.00120938
-0.0012045
-0.0011956
-0.00118217
-0.00116352
-0.00113931
-0.0011089
-0.00107103
-0.00102477
-0.000968432
-0.000897891
-0.000809777
-0.000703396
-0.000571533
-0.000406609
-0.000200855
5.53121e-05
0.00037486
0.000771816
0.00126426
0.00187737
0.00264118
0.00359153
0.00477653
0.00625448
0.00809736
0.0103983
0.0132646
0.0168278
0.0212592
0.0267895
0.0337006
0.0423107
0.053007
0.0663343
0.0829859
0.103723
0.129539
0.161695
0.201749
0.251544
0.31356
0.390731
0.486587
0.605535
0.752865
0.935276
1.16048
1.43749
1.77693
2.19089
2.69283
3.2952
4.01069
4.84742
5.80761
6.88231
8.04601
9.24995
10.4162
11.4502
12.0918
12.4861
-0.00246103
-0.00225214
-0.00145416
-0.00179787
-0.00160146
-0.00161706
-0.00159887
-0.00159702
-0.00159389
-0.00160021
-0.00161121
-0.00162416
-0.0016358
-0.00164854
-0.00166151
-0.00167116
-0.00167849
-0.0016836
-0.00168672
-0.00168725
-0.00168593
-0.00168092
-0.00167195
-0.00165862
-0.00164001
-0.00161567
-0.00158514
-0.00154721
-0.0015008
-0.00144432
-0.00137387
-0.00128578
-0.00117938
-0.00104727
-0.000882135
-0.000675944
-0.000419217
-9.90976e-05
0.000298533
0.000791731
0.0014059
0.00217108
0.00312307
0.00431017
0.00579086
0.00763714
0.0099421
0.0128134
0.0163833
0.0208227
0.0263626
0.0332863
0.0419128
0.0526306
0.0659851
0.0826743
0.103458
0.129345
0.161586
0.201734
0.25168
0.313871
0.391218
0.487358
0.60669
0.754557
0.937661
1.16378
1.44225
1.78358
2.20005
2.70545
3.31257
4.03469
4.88022
5.85212
6.94201
8.12452
9.35032
10.5397
11.603
12.2465
12.6436
-0.00246539
-0.00165266
-0.000803576
-0.00109167
-0.000911903
-0.00093142
-0.000917867
-0.000918521
-0.000918021
-0.00092608
-0.000938522
-0.000950814
-0.000962111
-0.000974819
-0.000987804
-0.0009975
-0.00100507
-0.00101043
-0.00101357
-0.00101405
-0.00101261
-0.00100754
-0.000998653
-0.000985502
-0.000967043
-0.000942715
-0.000912101
-0.00087402
-0.000827519
-0.000771016
-0.000700614
-0.000612624
-0.00050641
-0.000374186
-0.000208982
-2.70977e-06
0.000254238
0.000574578
0.000972354
0.00146577
0.00208026
0.00284601
0.0037986
0.00498634
0.00646813
0.00831578
0.0106221
0.0134951
0.0170678
0.0215109
0.0270545
0.0339829
0.0426164
0.0533441
0.0667071
0.0834118
0.104218
0.130143
0.162428
0.20262
0.252645
0.314914
0.392405
0.488733
0.60833
0.756606
0.940235
1.16713
1.44672
1.78968
2.20875
2.71706
3.32895
4.05794
4.91283
5.89762
7.00472
8.20909
9.46071
10.6774
11.7794
12.4192
12.8041
-0.00222034
-0.00226786
-0.00153668
-0.00187282
-0.00169001
-0.0017079
-0.00169375
-0.00169377
-0.00169326
-0.00170071
-0.00171206
-0.00172483
-0.00173654
-0.0017493
-0.00176216
-0.0017723
-0.00177998
-0.00178529
-0.00178833
-0.00178866
-0.00178702
-0.00178184
-0.00177291
-0.00175982
-0.0017414
-0.00171704
-0.0016864
-0.00164839
-0.00160183
-0.00154527
-0.00147509
-0.00138732
-0.00128138
-0.00114911
-0.000984022
-0.000777763
-0.000520778
-0.0002006
0.00019692
0.000690083
0.00130444
0.00207007
0.00302251
0.00421002
0.00569148
0.00753869
0.00984415
0.0127162
0.0162883
0.0207316
0.0262754
0.0332019
0.0418333
0.0525687
0.0659449
0.082651
0.103464
0.129404
0.161708
0.201918
0.25198
0.314274
0.391861
0.48831
0.608092
0.756677
0.940725
1.16826
1.44879
1.79323
2.21449
2.72592
3.34305
4.07909
4.94403
5.94288
7.06923
8.29847
9.57969
10.8249
12.0142
12.5977
-0.00128658
-0.000831255
-0.00108645
-0.000922302
-0.000940639
-0.000927548
-0.00092771
-0.000927896
-0.00093584
-0.000946742
-0.000958929
-0.000970438
-0.000982659
-0.000995122
-0.0010056
-0.00101356
-0.00101896
-0.00102188
-0.00102211
-0.0010203
-0.00101503
-0.00100615
-0.000993207
-0.000974944
-0.000950643
-0.000919996
-0.000881911
-0.000835323
-0.000778826
-0.000708837
-0.000621332
-0.000515763
-0.000383633
-0.000218741
-1.27122e-05
0.000243999
0.000563739
0.000960661
0.00145317
0.00206679
0.00283168
0.00378319
0.00496939
0.00644933
0.00829459
0.0105972
0.0134659
0.0170347
0.0214749
0.0270148
0.0339337
0.0425562
0.0532891
0.0666645
0.0833567
0.104158
0.130087
0.162377
0.202575
0.252628
0.314884
0.392496
0.488979
0.608829
0.757563
0.941922
1.1699
1.45113
1.79676
2.21987
2.73429
3.35601
4.09847
4.97367
5.98687
7.1338
8.39013
9.70471
10.9778
12.2304
-0.00195923
-0.00140169
-0.0017248
-0.00155263
-0.00157184
-0.00156208
-0.00156497
-0.00156679
-0.00157524
-0.0015862
-0.00159857
-0.00161042
-0.00162253
-0.00163483
-0.00164583
-0.00165401
-0.00165948
-0.00166236
-0.00166253
-0.00166058
-0.00165527
-0.00164636
-0.00163347
-0.00161529
-0.00159104
-0.00156045
-0.00152249
-0.00147594
-0.00141946
-0.00134977
-0.00126267
-0.0011576
-0.00102566
-0.000861145
-0.000655541
-0.000399335
-8.04411e-05
0.000315414
0.000806775
0.00141912
0.00218248
0.00313216
0.00431596
0.00579276
0.00763408
0.00993149
0.0127939
0.0163556
0.0207881
0.0263186
0.033223
0.0418278
0.0525455
0.0659036
0.0825661
0.103334
0.129223
0.161466
0.201611
0.251597
0.313799
0.391369
0.487802
0.607624
0.756393
0.940954
1.16925
1.45107
1.79779
2.22272
2.74014
3.36635
4.11537
5.00278
6.03304
7.20318
8.49118
9.84451
11.1505
12.4491
-0.00217994
-0.00141629
-0.00176575
-0.00161834
-0.00163606
-0.00163066
-0.00163753
-0.00164527
-0.00165483
-0.00166655
-0.00167584
-0.00168899
-0.00170275
-0.00171645
-0.00173015
-0.00174025
-0.0017464
-0.00174998
-0.00175199
-0.00175171
-0.00174797
-0.00174012
-0.00172744
-0.0017101
-0.00168861
-0.00166191
-0.0016281
-0.00158596
-0.0015343
-0.00147022
-0.00139071
-0.00129355
-0.0011733
-0.00102352
-0.000837611
-0.000606592
-0.000318758
3.98977e-05
0.000487041
0.0010443
0.00173823
0.00260291
0.00368025
0.00502146
0.00669281
0.00877741
0.0113689
0.0145951
0.0186174
0.0236239
0.0298793
0.0376722
0.0473836
0.0594755
0.0745048
0.0932375
0.1166
0.145671
0.181825
0.226851
0.282832
0.352338
0.438469
0.545487
0.677642
0.841853
1.04431
1.29229
1.60149
1.97839
2.4355
2.98802
3.65099
4.43748
5.35677
6.41002
7.58377
8.84126
10.0993
11.3228
-0.00183847
-0.00134431
-0.000776535
-0.00101865
-0.000872352
-0.000880539
-0.000862705
-0.000856715
-0.000850559
-0.000850626
-0.000855666
-0.000861304
-0.000871486
-0.000882531
-0.000894566
-0.000906852
-0.000915438
-0.000920634
-0.00092361
-0.000925082
-0.000924516
-0.000920468
-0.000912303
-0.000899274
-0.000881538
-0.000859711
-0.000832651
-0.000798316
-0.000755616
-0.000703319
-0.000638266
-0.000557494
-0.000459012
-0.000337267
-0.000185543
2.82851e-06
0.000236974
0.000528688
0.000891984
0.00134484
0.00190921
0.00261201
0.00348771
0.00457882
0.0059371
0.00762971
0.00974132
0.0123692
0.0156392
0.0197148
0.0247901
0.0311255
0.0390186
0.0488531
0.0610968
0.0763231
0.0952979
0.118961
0.14841
0.185057
0.230703
0.287467
0.357962
0.445358
0.554258
0.688449
0.854783
1.06056
1.3141
1.62222
2.0022
2.46316
3.01923
3.68476
4.47167
5.38758
6.43163
7.58882
8.81991
10.0481
11.1935
11.8975
-0.00207072
-0.00227066
-0.00144473
-0.00181003
-0.00164751
-0.00166649
-0.0016569
-0.0016614
-0.0016659
-0.00167497
-0.0016855
-0.00169707
-0.00170756
-0.00171874
-0.00173058
-0.00174266
-0.00175106
-0.0017561
-0.00175891
-0.00176018
-0.00175942
-0.00175516
-0.00174666
-0.00173322
-0.00171517
-0.00169297
-0.00166539
-0.00163055
-0.00158738
-0.00153452
-0.00146865
-0.00138674
-0.00128707
-0.00116407
-0.00101065
-0.000820041
-0.000583191
-0.000287975
7.95767e-05
0.000537315
0.00110781
0.00181832
0.00270345
0.00380637
0.00517926
0.00688977
0.0090242
0.0116853
0.0149966
0.019122
0.0242654
0.030678
0.0386679
0.0486206
0.0610109
0.0764279
0.0956342
0.119582
0.149374
0.186444
0.232606
0.289993
0.361228
0.449525
0.559092
0.695895
0.864101
1.072
1.32747
1.63985
2.02303
2.48769
3.04732
3.71555
4.50347
5.41732
6.45446
7.59824
8.80807
10.0098
11.1095
11.8062
12.2093
-0.00243299
-0.00118416
-0.000616312
-0.000896996
-0.000743256
-0.000754545
-0.000736157
-0.000730171
-0.000724392
-0.000727028
-0.000732526
-0.000741029
-0.000749718
-0.000759648
-0.000770954
-0.000782053
-0.000789412
-0.000794034
-0.000796802
-0.000797854
-0.000797146
-0.000792859
-0.000784298
-0.000770787
-0.000752608
-0.000730258
-0.000702459
-0.000667262
-0.000623692
-0.000570369
-0.000503674
-0.000420669
-0.000319963
-0.000195729
-4.06059e-05
0.000152184
0.000391848
0.000690576
0.00106232
0.00152512
0.00210184
0.00282015
0.00371492
0.00482988
0.00621784
0.00794727
0.010106
0.012799
0.0161485
0.0203202
0.0255231
0.0320077
0.0400872
0.0501485
0.0626751
0.0782694
0.0976926
0.121912
0.15204
0.189525
0.236201
0.294245
0.366305
0.455698
0.566768
0.704857
0.874936
1.08452
1.34222
1.65808
2.04422
2.51249
3.07597
3.74707
4.53647
5.44922
6.4812
7.61385
8.80477
9.97488
11.0378
11.7206
12.104
-0.00200264
-0.00209635
-0.0012606
-0.0015808
-0.00142031
-0.00144381
-0.00143797
-0.00144355
-0.00144637
-0.00145471
-0.00146462
-0.0014759
-0.00148648
-0.00149735
-0.00150893
-0.00151972
-0.00152736
-0.00153246
-0.00153556
-0.00153679
-0.00153621
-0.00153188
-0.00152313
-0.00150934
-0.00149086
-0.00146815
-0.00143988
-0.00140419
-0.00136018
-0.00130637
-0.00123893
-0.00115486
-0.00105303
-0.000927696
-0.000771024
-0.00057613
-0.000333969
-3.1964e-05
0.000343753
0.000811052
0.00139339
0.00211877
0.00302223
0.00414817
0.00554984
0.00729637
0.00947729
0.0121979
0.0155809
0.0197935
0.0250475
0.0315985
0.0397608
0.0499206
0.0625714
0.0783286
0.0979514
0.12242
0.152858
0.190733
0.237861
0.296494
0.369289
0.459638
0.571972
0.711231
0.882962
1.09447
1.35428
1.67312
2.06174
2.5334
3.10163
3.77564
4.56689
5.47942
6.50782
7.63144
8.80974
9.98815
10.9881
11.6228
12.0858
-0.00177375
-0.000812709
-0.000443479
-0.000662606
-0.000550559
-0.000583441
-0.00057343
-0.000574573
-0.000573714
-0.000579815
-0.000586945
-0.000594902
-0.00060393
-0.000613192
-0.00062333
-0.000632132
-0.00063869
-0.00064349
-0.000646238
-0.000646833
-0.000645806
-0.00064103
-0.000631846
-0.000617609
-0.000598774
-0.000575658
-0.000546871
-0.000510661
-0.000466134
-0.000411775
-0.000343511
-0.000258409
-0.000155709
-2.9273e-05
0.000128956
0.000325793
0.000570419
0.000875537
0.00125499
0.00172666
0.00231433
0.0030464
0.00395798
0.00509421
0.00650898
0.00827186
0.0104738
0.0132202
0.0166341
0.0208842
0.0261847
0.0327993
0.0410403
0.0512906
0.0640562
0.0799675
0.0997795
0.124485
0.15522
0.193502
0.241017
0.300237
0.373766
0.465084
0.578599
0.719062
0.892481
1.10628
1.36874
1.69117
2.08289
2.55888
3.12977
3.80783
4.60192
5.51519
6.54099
7.65756
8.82398
9.98792
11.0186
11.6384
12.0502
-0.00165977
-0.00184708
-0.00123638
-0.00149822
-0.00136166
-0.0013909
-0.00138673
-0.00139762
-0.00140124
-0.00141261
-0.00142535
-0.00143452
-0.00144392
-0.00145352
-0.0014631
-0.00147061
-0.00147662
-0.00148145
-0.00148421
-0.0014846
-0.0014835
-0.00147851
-0.00146912
-0.00145471
-0.00143561
-0.00141214
-0.00138295
-0.0013463
-0.00130136
-0.00124654
-0.00117768
-0.00109178
-0.000988124
-0.000860581
-0.00070092
-0.000502205
-0.000255296
5.27487e-05
0.000435806
0.000911721
0.00150454
0.00224302
0.00316246
0.00430864
0.00573599
0.00751473
0.00973709
0.012508
0.0159512
0.0202368
0.0255814
0.0322565
0.0405732
0.0509032
0.0637711
0.0798278
0.0998156
0.124736
0.155737
0.194339
0.242336
0.302086
0.376239
0.468389
0.582931
0.724374
0.899184
1.11467
1.37975
1.70464
2.10033
2.57971
3.15423
3.83619
4.63371
5.54926
6.57528
7.68902
8.84803
9.99183
11.011
11.6594
12.0341
-0.00181229
-0.000527023
-0.000510525
-0.000648755
-0.000573804
-0.000612903
-0.000619933
-0.000633148
-0.000639798
-0.000653852
-0.000665496
-0.000665076
-0.000673529
-0.000683236
-0.000692162
-0.000698539
-0.000704336
-0.000709538
-0.000712403
-0.000712597
-0.000711326
-0.000706208
-0.000696686
-0.000682181
-0.00066302
-0.000639322
-0.000609748
-0.000572743
-0.000527447
-0.000472189
-0.000402757
-0.000316156
-0.000211792
-8.33467e-05
7.75653e-05
0.000277932
0.000526907
0.00083756
0.00122383
0.00170346
0.00230082
0.00304497
0.00397125
0.00512611
0.00656469
0.00835753
0.0105977
0.0133904
0.0168596
0.0211766
0.0265604
0.0332906
0.0416794
0.0520628
0.0649936
0.0811742
0.10131
0.12641
0.157647
0.196547
0.244936
0.30517
0.379852
0.472753
0.588158
0.731056
0.907417
1.12444
1.39205
1.71887
2.1177
2.60043
3.17896
3.86518
4.66699
5.58626
6.61473
7.72892
8.88546
10.0196
11.0426
11.7588
12.051
-0.00181572
-0.00123583
-0.00112326
-0.00127865
-0.00119382
-0.00123659
-0.00123734
-0.00124936
-0.00125175
-0.00126761
-0.00128249
-0.00129213
-0.00130148
-0.00131087
-0.00131956
-0.00132588
-0.00133142
-0.00133615
-0.00133873
-0.00133858
-0.00133704
-0.00133162
-0.00132189
-0.00130727
-0.0012879
-0.00126386
-0.00123391
-0.00119655
-0.00115091
-0.00109527
-0.00102541
-0.000938281
-0.000833253
-0.000703857
-0.000541838
-0.000340086
-8.93021e-05
0.000223612
0.000612619
0.00109556
0.00169691
0.00244597
0.00337832
0.00454078
0.00598914
0.00779444
0.0100502
0.0128614
0.0163537
0.0206985
0.026119
0.0328943
0.0413353
0.0518061
0.0648561
0.0811601
0.101447
0.126713
0.158179
0.197372
0.246122
0.306842
0.3819
0.475451
0.591572
0.735431
0.913236
1.13235
1.40204
1.73146
2.13331
2.61959
3.20237
3.89334
4.70026
5.62471
6.65792
7.77576
8.93402
10.066
11.089
11.8046
12.0968
-0.00204894
-0.000594317
-0.000689854
-0.000799289
-0.000738693
-0.000783404
-0.000798073
-0.000817427
-0.000815602
-0.000829371
-0.000841112
-0.000848519
-0.000858309
-0.000867502
-0.000876037
-0.000882772
-0.000888769
-0.0008937
-0.000896283
-0.000896003
-0.000894356
-0.000888854
-0.000879116
-0.000864599
-0.000845233
-0.000820969
-0.000790752
-0.000753118
-0.000707204
-0.000651269
-0.000581094
-0.000493527
-0.000388003
-0.000257992
-9.51057e-05
0.000107891
0.000360178
0.000675006
0.00106638
0.00155199
0.00215661
0.00290979
0.0038471
0.00501583
0.00647243
0.00828817
0.0105567
0.0133835
0.0168955
0.0212636
0.0267153
0.0335293
0.0420182
0.0525515
0.0656782
0.0820798
0.102499
0.127866
0.159501
0.198924
0.247922
0.308995
0.384664
0.478848
0.595642
0.740351
0.919357
1.14008
1.41155
1.74348
2.14821
2.63809
3.22528
3.92145
4.73433
5.66539
6.70557
7.83028
8.99455
10.1309
11.1586
11.8766
12.1689
-0.00211925
-0.000844782
-0.000916456
-0.00102547
-0.000961333
-0.00100709
-0.00102089
-0.00103398
-0.00103658
-0.00105084
-0.00106452
-0.00107482
-0.00108475
-0.0010938
-0.00110203
-0.00110873
-0.00111476
-0.00111926
-0.00112172
-0.00112125
-0.00111938
-0.00111369
-0.00110387
-0.00108937
-0.00106996
-0.00104547
-0.00101496
-0.000977079
-0.000930906
-0.000874692
-0.000804267
-0.000716396
-0.000610504
-0.000479747
-0.000316095
-0.000112154
0.000141491
0.00045797
0.000851291
0.0013393
0.00194684
0.00270363
0.00364534
0.00481957
0.00628337
0.00810826
0.010388
0.0132283
0.0167576
0.0211462
0.0266244
0.0334718
0.042002
0.0525909
0.0657817
0.0822658
0.102786
0.128332
0.160156
0.199802
0.248942
0.310247
0.386539
0.481259
0.598689
0.744302
0.924416
1.14659
1.41978
1.75411
2.1617
2.65524
3.24701
3.94881
4.76851
5.70765
6.7571
7.89199
9.06671
10.2136
11.2509
11.9747
12.2673
-0.00212383
-0.000853291
-0.000920559
-0.00102728
-0.000962121
-0.00100745
-0.00102108
-0.0010341
-0.00103671
-0.00105106
-0.00106472
-0.001075
-0.00108492
-0.00109396
-0.00110217
-0.00110893
-0.00111507
-0.00111945
-0.0011218
-0.00112114
-0.00111913
-0.00111332
-0.00110347
-0.00108914
-0.00106974
-0.00104505
-0.00101437
-0.000976283
-0.000929903
-0.000873531
-0.000802989
-0.000714924
-0.000608779
-0.00047758
-0.000313384
-0.000108613
0.000146055
0.000463799
0.000858629
0.00134833
0.001958
0.00271751
0.0036625
0.0048409
0.0063102
0.00814203
0.0104302
0.0132809
0.0168233
0.0212275
0.0267257
0.0335986
0.042161
0.0527919
0.0660338
0.0825832
0.103186
0.128844
0.160794
0.200616
0.249959
0.311536
0.38819
0.483353
0.601322
0.747798
0.928878
1.15234
1.42709
1.76365
2.17396
2.67121
3.26765
3.97551
4.80283
5.75148
6.81245
7.96081
9.15077
10.3139
11.3664
12.0988
12.3925
-0.00206313
-0.000620829
-0.000702357
-0.000804768
-0.000741233
-0.000784713
-0.000798937
-0.00081821
-0.000816342
-0.000830022
-0.000841746
-0.000849143
-0.000858863
-0.000868007
-0.000876425
-0.000883205
-0.00088949
-0.000894097
-0.00089644
-0.000895804
-0.000893701
-0.000887865
-0.000878077
-0.000863929
-0.000844649
-0.000819886
-0.00078903
-0.000750782
-0.000704242
-0.000647731
-0.000577108
-0.000488941
-0.000382726
-0.000251079
-8.64717e-05
0.000118818
0.00037432
0.00069305
0.00108898
0.00158003
0.00219143
0.00295315
0.00390074
0.00508234
0.00655603
0.00839336
0.0106881
0.0135469
0.0171
0.0215169
0.0270305
0.033924
0.0425127
0.0531765
0.0664617
0.083066
0.103744
0.129467
0.161476
0.201399
0.251026
0.312857
0.389782
0.48536
0.604028
0.75085
0.932777
1.15744
1.43353
1.77214
2.18502
2.68609
3.28733
4.0017
4.83749
5.79713
6.87199
8.03728
9.24704
10.4321
11.5054
12.2491
12.5444
-0.00183965
-0.00128296
-0.00114419
-0.00128774
-0.00119802
-0.00123879
-0.00123879
-0.00125059
-0.00125296
-0.00126886
-0.00128361
-0.00129329
-0.00130257
-0.0013119
-0.00132043
-0.00132684
-0.00133271
-0.00133703
-0.00133922
-0.00133839
-0.0013361
-0.00133014
-0.0013203
-0.00130628
-0.00128705
-0.00126217
-0.00123122
-0.00119293
-0.00114627
-0.00108964
-0.00101914
-0.000931033
-0.000824839
-0.000692973
-0.00052819
-0.000322517
-6.65025e-05
0.000252728
0.00064922
0.00114093
0.00175324
0.00251616
0.00346518
0.00464863
0.00612469
0.00796493
0.0102632
0.0131263
0.0166851
0.0211087
0.0266296
0.0335337
0.042136
0.0528182
0.0661247
0.0827597
0.10347
0.129274
0.161402
0.201418
0.251213
0.313248
0.390272
0.486101
0.60507
0.752465
0.93505
1.16047
1.43844
1.77902
2.19416
2.69938
3.30551
4.0269
4.87203
5.84418
6.93531
8.12097
9.35511
10.5684
11.6673
12.4263
12.7226
-0.00184554
-0.000599585
-0.000539724
-0.000660866
-0.000579313
-0.000615694
-0.000621721
-0.000634709
-0.000641305
-0.000655259
-0.000666838
-0.00066655
-0.000674722
-0.000684333
-0.000693006
-0.000699383
-0.000705533
-0.000710346
-0.000712715
-0.00071204
-0.00070977
-0.000703883
-0.000694231
-0.000680506
-0.00066152
-0.000636718
-0.000605725
-0.000567324
-0.000520592
-0.000463971
-0.000393539
-0.000305535
-0.000199541
-6.75232e-05
9.7345e-05
0.000303154
0.000559466
0.000878998
0.00127574
0.0017678
0.00238061
0.00314436
0.0040943
0.00527879
0.00675649
0.00859876
0.0108992
0.0137651
0.0173284
0.0217574
0.0272834
0.0341953
0.0428104
0.0534984
0.0667894
0.0834407
0.104174
0.130023
0.162209
0.202272
0.252153
0.314255
0.391516
0.487573
0.606853
0.754755
0.93795
1.16432
1.44342
1.78581
2.20476
2.71208
3.32284
4.05164
4.90682
5.89292
7.00261
8.21204
9.47526
10.7235
11.8525
12.6204
12.9274
-0.00153795
-0.00195534
-0.00127394
-0.00151352
-0.0013687
-0.00139463
-0.00138926
-0.00139981
-0.0014034
-0.00141475
-0.00142729
-0.00143642
-0.00144574
-0.00145522
-0.0014645
-0.00147192
-0.00147813
-0.00148266
-0.00148487
-0.00148415
-0.00148176
-0.00147586
-0.00146625
-0.00145265
-0.00143377
-0.001409
-0.00137804
-0.00133977
-0.00129302
-0.00123637
-0.0011662
-0.00107849
-0.00097281
-0.000840772
-0.000676043
-0.000470278
-0.00021396
0.000105346
0.00050176
0.00099353
0.00160616
0.00236971
0.00331945
0.00450361
0.00598081
0.00782246
0.0101216
0.0129859
0.016548
0.0209774
0.0265039
0.0334119
0.0420204
0.052726
0.0660617
0.0827183
0.103468
0.12934
0.161558
0.201649
0.25158
0.31371
0.391095
0.487296
0.606787
0.75505
0.938624
1.16566
1.44563
1.78947
2.21018
2.7207
3.33799
4.07486
4.94108
5.94287
7.07367
8.31044
9.60744
10.8979
12.0499
12.7429
13.1632
-0.00148346
-0.000959697
-0.00048835
-0.000680058
-0.000558601
-0.000587673
-0.000576242
-0.000577084
-0.000576161
-0.000582109
-0.000589087
-0.000596929
-0.000605875
-0.000615014
-0.000624732
-0.000633297
-0.00064
-0.000644621
-0.000646764
-0.00064607
-0.000643561
-0.000637626
-0.000628197
-0.000614855
-0.000596233
-0.000571623
-0.000540715
-0.000502399
-0.000455647
-0.000399101
-0.000329179
-0.000241793
-0.000136532
-4.65571e-06
0.000159875
0.000365422
0.000621467
0.000940322
0.00133615
0.00182733
0.00243924
0.00320213
0.0041511
0.00533409
0.00680998
0.00865002
0.0109465
0.0138077
0.017367
0.0217948
0.0273197
0.0342208
0.042821
0.0535289
0.0668726
0.0835208
0.104268
0.130136
0.162352
0.202455
0.252411
0.314472
0.391912
0.488186
0.607798
0.756271
0.940352
1.16803
1.44896
1.79438
2.21749
2.73217
3.35507
4.10005
4.9772
5.99605
7.15015
8.41732
9.7515
11.0901
12.2731
12.9687
13.4303
-0.00162309
-0.00230841
-0.00131165
-0.00160054
-0.0014296
-0.00144888
-0.0014415
-0.00144668
-0.00144947
-0.00145771
-0.00146737
-0.00147847
-0.00148902
-0.00149967
-0.00151078
-0.00152117
-0.00152878
-0.00153379
-0.00153624
-0.00153601
-0.00153371
-0.00152812
-0.00151901
-0.00150597
-0.00148769
-0.00146337
-0.00143273
-0.00139473
-0.00134814
-0.00129165
-0.00122208
-0.00113525
-0.00103056
-0.000898758
-0.000734523
-0.000529295
-0.000273588
4.45385e-05
0.000439483
0.000929875
0.00154103
0.00230294
0.00325089
0.00443243
0.00590625
0.00774377
0.0100365
0.0128931
0.016448
0.0208724
0.0263929
0.0332836
0.0418715
0.0525717
0.0659086
0.0825402
0.103271
0.129117
0.161305
0.201386
0.251292
0.313407
0.390886
0.487201
0.606896
0.755544
0.940046
1.16829
1.45015
1.79711
2.2226
2.74118
3.36946
4.12171
5.01535
6.05398
7.23589
8.54042
9.91809
11.2988
12.5096
13.2322
13.7173
-0.00200525
-0.00132403
-0.00066286
-0.00091678
-0.000752996
-0.000759888
-0.000739856
-0.000733487
-0.000727635
-0.000730079
-0.000735349
-0.000743759
-0.000752439
-0.000762209
-0.000772911
-0.000783411
-0.000790707
-0.000795287
-0.000797373
-0.00079686
-0.000794301
-0.000788588
-0.000779577
-0.000766765
-0.000748767
-0.000724687
-0.000694204
-0.000656353
-0.000609865
-0.000553556
-0.00048442
-0.000398115
-0.000294158
-0.000162708
1.07595e-06
0.000205758
0.000460655
0.000777616
0.00117122
0.00166016
0.00226953
0.00302939
0.00397493
0.00515322
0.0066229
0.00845517
0.0107409
0.0135893
0.0171348
0.0215485
0.0270556
0.0339265
0.0424901
0.0531646
0.0664716
0.0830616
0.103743
0.129526
0.161639
0.201639
0.251445
0.313456
0.390849
0.48705
0.606643
0.755234
0.93979
1.16823
1.45055
1.79847
2.22564
2.74722
3.38016
4.14076
5.04502
6.10093
7.30789
8.64751
10.0665
11.4904
12.7712
13.4983
13.9539
-0.00232751
-0.00237407
-0.00148762
-0.00183005
-0.00165802
-0.00167263
-0.00166138
-0.00166542
-0.00166979
-0.00167865
-0.00168889
-0.00170032
-0.00171088
-0.00172182
-0.00173297
-0.00174433
-0.00175255
-0.0017576
-0.00175964
-0.00175924
-0.00175654
-0.00175074
-0.00174162
-0.00172877