/*--------------------------------*- C++ -*----------------------------------*\
| =========                 |                                                 |
| \\      /  F ield         | OpenFOAM: The Open Source CFD Toolbox           |
|  \\    /   O peration     | Version:  v1906                                 |
|   \\  /    A nd           | Web:      www.OpenFOAM.com                      |
|    \\/     M anipulation  |                                                 |
\*---------------------------------------------------------------------------*/
FoamFile
{
    version     2.0;
    format      ascii;
    class       volScalarField;
    location    "0.43";
    object      p;
}
// * * * * * * * * * * * * * * * * * * * * * * * * * * * * * * * * * * * * * //

dimensions      [0 2 -2 0 0 0 0];


internalField   nonuniform List<scalar> 
243374
(
-6.03421e-16
-8.60424e-10
-6.24008e-10
-6.42024e-10
-6.80032e-10
-7.16194e-10
-7.51127e-10
-7.86172e-10
-8.19465e-10
-8.50926e-10
-8.79207e-10
-9.08276e-10
-9.34715e-10
-9.60179e-10
-9.84858e-10
-1.00811e-09
-1.0315e-09
-1.05423e-09
-1.07584e-09
-1.09932e-09
-1.12186e-09
-1.14411e-09
-1.16644e-09
-1.18836e-09
-1.20964e-09
-1.23298e-09
-1.25394e-09
-1.27633e-09
-1.29875e-09
-1.3207e-09
-1.34287e-09
-1.36476e-09
-1.38694e-09
-1.40818e-09
-1.43114e-09
-1.45339e-09
-1.47437e-09
-1.4973e-09
-1.51847e-09
-1.54095e-09
-1.56236e-09
-1.58516e-09
-1.60594e-09
-1.62886e-09
-1.65044e-09
-1.6729e-09
-1.69382e-09
-1.71533e-09
-1.73783e-09
-1.75962e-09
-1.78146e-09
-1.80236e-09
-1.82332e-09
-1.84535e-09
-1.86569e-09
-1.88792e-09
-1.90974e-09
-1.93113e-09
-1.95308e-09
-1.97563e-09
-1.99938e-09
-2.02548e-09
-2.05523e-09
-2.08916e-09
-2.13098e-09
-2.1833e-09
-2.25264e-09
-2.34475e-09
-2.47206e-09
-2.65087e-09
-2.89591e-09
-3.24646e-09
-3.73459e-09
-4.43799e-09
-5.41087e-09
-6.76711e-09
-8.65457e-09
-1.12265e-08
-1.44264e-08
-2.01899e-08
-8.32015e-10
-7.3243e-10
-6.33604e-10
-6.50457e-10
-6.84309e-10
-7.19593e-10
-7.54577e-10
-7.88804e-10
-8.2123e-10
-8.52636e-10
-8.82824e-10
-9.10113e-10
-9.36358e-10
-9.6138e-10
-9.85897e-10
-1.00964e-09
-1.03297e-09
-1.0559e-09
-1.07867e-09
-1.10089e-09
-1.12363e-09
-1.14573e-09
-1.16775e-09
-1.18977e-09
-1.21236e-09
-1.23424e-09
-1.25623e-09
-1.27824e-09
-1.30018e-09
-1.3222e-09
-1.3441e-09
-1.36685e-09
-1.38854e-09
-1.41086e-09
-1.43251e-09
-1.45533e-09
-1.47704e-09
-1.49897e-09
-1.52067e-09
-1.54302e-09
-1.56454e-09
-1.58678e-09
-1.60918e-09
-1.6304e-09
-1.65281e-09
-1.67417e-09
-1.69606e-09
-1.71805e-09
-1.7394e-09
-1.76144e-09
-1.78275e-09
-1.80403e-09
-1.82544e-09
-1.84698e-09
-1.86864e-09
-1.88974e-09
-1.91114e-09
-1.93305e-09
-1.95536e-09
-1.9784e-09
-2.00273e-09
-2.02949e-09
-2.05871e-09
-2.09366e-09
-2.13617e-09
-2.19034e-09
-2.26124e-09
-2.35709e-09
-2.48811e-09
-2.67015e-09
-2.92427e-09
-3.28218e-09
-3.78722e-09
-4.49677e-09
-5.49172e-09
-6.87751e-09
-8.79479e-09
-1.14076e-08
-1.48253e-08
-1.95954e-08
-1.23128e-09
-7.10951e-10
-6.296e-10
-6.50274e-10
-6.82269e-10
-7.16088e-10
-7.50695e-10
-7.86068e-10
-8.18874e-10
-8.50839e-10
-8.80358e-10
-9.08098e-10
-9.34454e-10
-9.59755e-10
-9.84022e-10
-1.00769e-09
-1.0308e-09
-1.0543e-09
-1.0765e-09
-1.09897e-09
-1.12202e-09
-1.14369e-09
-1.16606e-09
-1.18801e-09
-1.21022e-09
-1.23232e-09
-1.25416e-09
-1.27644e-09
-1.29855e-09
-1.32047e-09
-1.34287e-09
-1.36497e-09
-1.38699e-09
-1.4085e-09
-1.43109e-09
-1.45314e-09
-1.4754e-09
-1.49732e-09
-1.51961e-09
-1.541e-09
-1.56367e-09
-1.58534e-09
-1.60726e-09
-1.62929e-09
-1.65076e-09
-1.67251e-09
-1.69451e-09
-1.71605e-09
-1.73793e-09
-1.75869e-09
-1.78089e-09
-1.80256e-09
-1.82403e-09
-1.84519e-09
-1.86675e-09
-1.88819e-09
-1.90968e-09
-1.93183e-09
-1.95437e-09
-1.97718e-09
-2.00192e-09
-2.02872e-09
-2.05842e-09
-2.09304e-09
-2.13719e-09
-2.19235e-09
-2.26459e-09
-2.36197e-09
-2.49564e-09
-2.6816e-09
-2.94155e-09
-3.30725e-09
-3.82234e-09
-4.54679e-09
-5.56129e-09
-6.97174e-09
-8.91747e-09
-1.15693e-08
-1.50501e-08
-1.94384e-08
-4.97366e-10
7.77038e-10
-4.97049e-10
-6.21643e-10
-6.4866e-10
-6.80394e-10
-7.15243e-10
-7.51041e-10
-7.85956e-10
-8.19773e-10
-8.51407e-10
-8.81733e-10
-9.09719e-10
-9.35942e-10
-9.60885e-10
-9.85225e-10
-1.00898e-09
-1.03258e-09
-1.05451e-09
-1.07749e-09
-1.10018e-09
-1.12209e-09
-1.14464e-09
-1.16687e-09
-1.18923e-09
-1.21105e-09
-1.23348e-09
-1.25565e-09
-1.27735e-09
-1.29939e-09
-1.3215e-09
-1.34322e-09
-1.36533e-09
-1.38713e-09
-1.40986e-09
-1.43149e-09
-1.45329e-09
-1.47511e-09
-1.4969e-09
-1.51882e-09
-1.5407e-09
-1.56295e-09
-1.58494e-09
-1.60712e-09
-1.62926e-09
-1.65174e-09
-1.67368e-09
-1.69466e-09
-1.71662e-09
-1.7385e-09
-1.76042e-09
-1.78211e-09
-1.80342e-09
-1.82482e-09
-1.84672e-09
-1.86774e-09
-1.88944e-09
-1.91112e-09
-1.93282e-09
-1.95504e-09
-1.97815e-09
-2.003e-09
-2.03018e-09
-2.06106e-09
-2.09727e-09
-2.14072e-09
-2.19641e-09
-2.2698e-09
-2.36939e-09
-2.50525e-09
-2.69404e-09
-2.95858e-09
-3.33061e-09
-3.85436e-09
-4.59072e-09
-5.62059e-09
-7.05197e-09
-9.02356e-09
-1.17103e-08
-1.5426e-08
-2.15191e-08
-2.49603e-08
-2.40269e-10
-1.32774e-09
-7.27009e-10
-6.25532e-10
-6.46942e-10
-6.78105e-10
-7.13363e-10
-7.49577e-10
-7.84792e-10
-8.18521e-10
-8.5072e-10
-8.80855e-10
-9.08263e-10
-9.3468e-10
-9.59952e-10
-9.84275e-10
-1.00797e-09
-1.03114e-09
-1.05403e-09
-1.07685e-09
-1.09923e-09
-1.12174e-09
-1.14404e-09
-1.16618e-09
-1.18827e-09
-1.21043e-09
-1.23263e-09
-1.2545e-09
-1.27673e-09
-1.29873e-09
-1.32073e-09
-1.34268e-09
-1.36489e-09
-1.38671e-09
-1.40897e-09
-1.43075e-09
-1.45248e-09
-1.47446e-09
-1.49627e-09
-1.51835e-09
-1.54054e-09
-1.5626e-09
-1.5845e-09
-1.60651e-09
-1.62838e-09
-1.65071e-09
-1.67255e-09
-1.69411e-09
-1.71608e-09
-1.73798e-09
-1.75949e-09
-1.78113e-09
-1.80281e-09
-1.82433e-09
-1.8458e-09
-1.86727e-09
-1.88886e-09
-1.91042e-09
-1.93253e-09
-1.95497e-09
-1.97839e-09
-2.00342e-09
-2.03073e-09
-2.06147e-09
-2.09766e-09
-2.14223e-09
-2.19896e-09
-2.27323e-09
-2.37418e-09
-2.51216e-09
-2.70346e-09
-2.97183e-09
-3.34876e-09
-3.87923e-09
-4.62471e-09
-5.66739e-09
-7.11474e-09
-9.10579e-09
-1.18131e-08
-1.53477e-08
-1.96903e-08
-2.51901e-08
-3.18363e-08
-1.54892e-11
3.53966e-10
-5.04735e-10
-6.18034e-10
-6.46122e-10
-6.76889e-10
-7.12435e-10
-7.48802e-10
-7.84352e-10
-8.18303e-10
-8.50741e-10
-8.80874e-10
-9.0877e-10
-9.34789e-10
-9.59952e-10
-9.84349e-10
-1.00794e-09
-1.03123e-09
-1.05416e-09
-1.07674e-09
-1.09929e-09
-1.12172e-09
-1.14401e-09
-1.16624e-09
-1.18824e-09
-1.21048e-09
-1.23259e-09
-1.25465e-09
-1.27661e-09
-1.29878e-09
-1.32068e-09
-1.3427e-09
-1.36478e-09
-1.38673e-09
-1.4086e-09
-1.4303e-09
-1.45219e-09
-1.47424e-09
-1.49619e-09
-1.51826e-09
-1.54052e-09
-1.56269e-09
-1.58453e-09
-1.60645e-09
-1.62831e-09
-1.65036e-09
-1.67233e-09
-1.69403e-09
-1.71612e-09
-1.73787e-09
-1.75956e-09
-1.78128e-09
-1.80291e-09
-1.8244e-09
-1.84595e-09
-1.86739e-09
-1.88904e-09
-1.91073e-09
-1.93273e-09
-1.95546e-09
-1.97889e-09
-2.00411e-09
-2.03152e-09
-2.06266e-09
-2.09939e-09
-2.14416e-09
-2.20129e-09
-2.27651e-09
-2.37839e-09
-2.51764e-09
-2.71105e-09
-2.98167e-09
-3.36207e-09
-3.89724e-09
-4.64899e-09
-5.70022e-09
-7.15814e-09
-9.16211e-09
-1.18898e-08
-1.56507e-08
-2.13789e-08
-2.54373e-08
-3.16455e-08
-2.74603e-10
-7.46161e-10
-6.40899e-10
-6.21751e-10
-6.45271e-10
-6.76068e-10
-7.11736e-10
-7.48406e-10
-7.84035e-10
-8.18017e-10
-8.50592e-10
-8.80691e-10
-9.0846e-10
-9.34637e-10
-9.59747e-10
-9.8415e-10
-1.00775e-09
-1.03114e-09
-1.05407e-09
-1.07657e-09
-1.09916e-09
-1.12156e-09
-1.14384e-09
-1.16611e-09
-1.18815e-09
-1.21035e-09
-1.23237e-09
-1.25453e-09
-1.27654e-09
-1.29859e-09
-1.32052e-09
-1.3426e-09
-1.3646e-09
-1.38642e-09
-1.40831e-09
-1.43007e-09
-1.45205e-09
-1.47397e-09
-1.49589e-09
-1.51789e-09
-1.53972e-09
-1.56151e-09
-1.58354e-09
-1.60572e-09
-1.6278e-09
-1.64998e-09
-1.67205e-09
-1.69392e-09
-1.716e-09
-1.73782e-09
-1.75949e-09
-1.78116e-09
-1.80283e-09
-1.82442e-09
-1.84594e-09
-1.86743e-09
-1.88907e-09
-1.91071e-09
-1.9329e-09
-1.95563e-09
-1.97931e-09
-2.00454e-09
-2.03216e-09
-2.06346e-09
-2.10036e-09
-2.14557e-09
-2.20301e-09
-2.27894e-09
-2.38127e-09
-2.52143e-09
-2.71579e-09
-2.98805e-09
-3.37021e-09
-3.9078e-09
-4.66285e-09
-5.71848e-09
-7.18181e-09
-9.19213e-09
-1.19256e-08
-1.5574e-08
-2.04088e-08
-2.5482e-08
-3.205e-08
-5.64097e-10
-7.4996e-10
-6.37892e-10
-6.21499e-10
-6.45186e-10
-6.76044e-10
-7.11718e-10
-7.48409e-10
-7.8405e-10
-8.18036e-10
-8.50557e-10
-8.80709e-10
-9.08489e-10
-9.34602e-10
-9.59785e-10
-9.84177e-10
-1.00777e-09
-1.03123e-09
-1.05389e-09
-1.0765e-09
-1.09917e-09
-1.12155e-09
-1.14387e-09
-1.16614e-09
-1.18812e-09
-1.21033e-09
-1.23237e-09
-1.25444e-09
-1.27657e-09
-1.2986e-09
-1.32057e-09
-1.34263e-09
-1.36461e-09
-1.38652e-09
-1.40834e-09
-1.43023e-09
-1.45229e-09
-1.47424e-09
-1.49627e-09
-1.51846e-09
-1.54039e-09
-1.56224e-09
-1.58412e-09
-1.60605e-09
-1.62799e-09
-1.65012e-09
-1.67215e-09
-1.69401e-09
-1.71607e-09
-1.73788e-09
-1.7596e-09
-1.78118e-09
-1.80294e-09
-1.82452e-09
-1.84604e-09
-1.86761e-09
-1.88924e-09
-1.91097e-09
-1.93319e-09
-1.95601e-09
-1.97978e-09
-2.00507e-09
-2.03279e-09
-2.06424e-09
-2.10135e-09
-2.14672e-09
-2.20441e-09
-2.2806e-09
-2.38308e-09
-2.52344e-09
-2.71831e-09
-2.99069e-09
-3.37316e-09
-3.91089e-09
-4.66602e-09
-5.72146e-09
-7.18456e-09
-9.1944e-09
-1.1927e-08
-1.55709e-08
-2.04132e-08
-2.54529e-08
-3.19186e-08
-7.35636e-10
2.92681e-10
-5.07303e-10
-6.19555e-10
-6.46072e-10
-6.77002e-10
-7.1237e-10
-7.48802e-10
-7.84323e-10
-8.1831e-10
-8.50655e-10
-8.8088e-10
-9.08833e-10
-9.34944e-10
-9.60064e-10
-9.84581e-10
-1.00799e-09
-1.03133e-09
-1.05456e-09
-1.07674e-09
-1.09921e-09
-1.12165e-09
-1.14402e-09
-1.16637e-09
-1.18828e-09
-1.21078e-09
-1.2325e-09
-1.25497e-09
-1.27665e-09
-1.29869e-09
-1.32091e-09
-1.34279e-09
-1.36513e-09
-1.38678e-09
-1.40858e-09
-1.43032e-09
-1.45227e-09
-1.47407e-09
-1.4959e-09
-1.51789e-09
-1.54006e-09
-1.56214e-09
-1.5841e-09
-1.606e-09
-1.62806e-09
-1.65029e-09
-1.67248e-09
-1.6943e-09
-1.71648e-09
-1.73807e-09
-1.75999e-09
-1.78139e-09
-1.80311e-09
-1.82473e-09
-1.84638e-09
-1.86808e-09
-1.88959e-09
-1.9114e-09
-1.93365e-09
-1.95645e-09
-1.98058e-09
-2.00561e-09
-2.03347e-09
-2.06497e-09
-2.10211e-09
-2.14756e-09
-2.2055e-09
-2.28135e-09
-2.38379e-09
-2.5239e-09
-2.71825e-09
-2.98962e-09
-3.37085e-09
-3.90651e-09
-4.65847e-09
-5.70927e-09
-7.16649e-09
-9.16915e-09
-1.18968e-08
-1.56696e-08
-2.14325e-08
-2.53932e-08
-3.17857e-08
-7.68556e-10
-1.29409e-09
-7.28231e-10
-6.2485e-10
-6.46887e-10
-6.78059e-10
-7.13306e-10
-7.49647e-10
-7.84707e-10
-8.18572e-10
-8.50654e-10
-8.80761e-10
-9.08351e-10
-9.34454e-10
-9.59982e-10
-9.84142e-10
-1.00792e-09
-1.03133e-09
-1.05365e-09
-1.07667e-09
-1.0992e-09
-1.12156e-09
-1.14393e-09
-1.16611e-09
-1.18826e-09
-1.21007e-09
-1.23235e-09
-1.25415e-09
-1.27654e-09
-1.29865e-09
-1.32036e-09
-1.34271e-09
-1.36429e-09
-1.38678e-09
-1.40876e-09
-1.43076e-09
-1.45276e-09
-1.47454e-09
-1.49644e-09
-1.51842e-09
-1.5404e-09
-1.56249e-09
-1.5846e-09
-1.60639e-09
-1.62867e-09
-1.65068e-09
-1.67272e-09
-1.69437e-09
-1.71603e-09
-1.73808e-09
-1.75941e-09
-1.78129e-09
-1.8032e-09
-1.82455e-09
-1.84623e-09
-1.86755e-09
-1.88949e-09
-1.91132e-09
-1.93351e-09
-1.95656e-09
-1.98009e-09
-2.00587e-09
-2.03369e-09
-2.06525e-09
-2.10239e-09
-2.14781e-09
-2.20533e-09
-2.28115e-09
-2.38316e-09
-2.52228e-09
-2.71562e-09
-2.98509e-09
-3.36341e-09
-3.89469e-09
-4.64044e-09
-5.68269e-09
-7.12862e-09
-9.11732e-09
-1.18211e-08
-1.53451e-08
-1.96643e-08
-2.52297e-08
-3.16937e-08
-5.57936e-10
7.57876e-10
-5.04697e-10
-6.21494e-10
-6.48435e-10
-6.80017e-10
-7.15203e-10
-7.50948e-10
-7.86196e-10
-8.19583e-10
-8.51805e-10
-8.81609e-10
-9.09554e-10
-9.35854e-10
-9.61106e-10
-9.85317e-10
-1.00909e-09
-1.03224e-09
-1.05518e-09
-1.07765e-09
-1.09951e-09
-1.12203e-09
-1.14493e-09
-1.16693e-09
-1.18919e-09
-1.21146e-09
-1.23345e-09
-1.25567e-09
-1.27768e-09
-1.29954e-09
-1.32162e-09
-1.34357e-09
-1.366e-09
-1.38777e-09
-1.40975e-09
-1.43195e-09
-1.45424e-09
-1.47539e-09
-1.49713e-09
-1.51903e-09
-1.54104e-09
-1.56309e-09
-1.5854e-09
-1.60739e-09
-1.62984e-09
-1.6519e-09
-1.67389e-09
-1.69546e-09
-1.71734e-09
-1.73914e-09
-1.76074e-09
-1.78261e-09
-1.80396e-09
-1.82584e-09
-1.84735e-09
-1.86917e-09
-1.89074e-09
-1.91246e-09
-1.93417e-09
-1.95776e-09
-1.98175e-09
-2.00686e-09
-2.03487e-09
-2.06652e-09
-2.10361e-09
-2.14888e-09
-2.20609e-09
-2.28123e-09
-2.38247e-09
-2.51967e-09
-2.71075e-09
-2.97733e-09
-3.35133e-09
-3.87596e-09
-4.61272e-09
-5.64171e-09
-7.07151e-09
-9.03957e-09
-1.17221e-08
-1.54392e-08
-2.15408e-08
-2.50727e-08
-3.16665e-08
-4.747e-10
-1.23688e-09
-7.06117e-10
-6.29049e-10
-6.4978e-10
-6.81556e-10
-7.16057e-10
-7.51109e-10
-7.85398e-10
-8.19066e-10
-8.50677e-10
-8.80717e-10
-9.08357e-10
-9.34489e-10
-9.5957e-10
-9.8375e-10
-1.0073e-09
-1.03093e-09
-1.05378e-09
-1.07616e-09
-1.09916e-09
-1.12173e-09
-1.14317e-09
-1.16576e-09
-1.18778e-09
-1.21012e-09
-1.23212e-09
-1.25413e-09
-1.27598e-09
-1.29801e-09
-1.3201e-09
-1.34221e-09
-1.36423e-09
-1.38638e-09
-1.40852e-09
-1.43052e-09
-1.45271e-09
-1.47531e-09
-1.49702e-09
-1.51914e-09
-1.54097e-09
-1.56289e-09
-1.58539e-09
-1.60725e-09
-1.62862e-09
-1.6505e-09
-1.67207e-09
-1.694e-09
-1.71579e-09
-1.73794e-09
-1.75938e-09
-1.78036e-09
-1.80268e-09
-1.82434e-09
-1.84609e-09
-1.86713e-09
-1.88941e-09
-1.91148e-09
-1.93419e-09
-1.95692e-09
-1.98063e-09
-2.00583e-09
-2.03366e-09
-2.06531e-09
-2.10217e-09
-2.14655e-09
-2.20371e-09
-2.27822e-09
-2.37825e-09
-2.51466e-09
-2.70309e-09
-2.96572e-09
-3.33403e-09
-3.85046e-09
-4.57514e-09
-5.58794e-09
-6.99685e-09
-8.93823e-09
-1.15844e-08
-1.50528e-08
-1.94527e-08
-2.47073e-08
-8.27315e-10
-7.30472e-10
-6.3283e-10
-6.49717e-10
-6.8566e-10
-7.19585e-10
-7.54382e-10
-7.88325e-10
-8.21247e-10
-8.52573e-10
-8.81846e-10
-9.09786e-10
-9.36119e-10
-9.61884e-10
-9.85821e-10
-1.0101e-09
-1.03272e-09
-1.05541e-09
-1.07814e-09
-1.10132e-09
-1.12341e-09
-1.14606e-09
-1.16804e-09
-1.18967e-09
-1.2117e-09
-1.23386e-09
-1.25597e-09
-1.27816e-09
-1.30041e-09
-1.3221e-09
-1.34438e-09
-1.36629e-09
-1.38824e-09
-1.41016e-09
-1.43233e-09
-1.45451e-09
-1.47705e-09
-1.49943e-09
-1.521e-09
-1.54298e-09
-1.56533e-09
-1.58708e-09
-1.60894e-09
-1.63027e-09
-1.65237e-09
-1.67474e-09
-1.69596e-09
-1.71808e-09
-1.73962e-09
-1.76119e-09
-1.78401e-09
-1.80511e-09
-1.82617e-09
-1.84805e-09
-1.87037e-09
-1.89146e-09
-1.91334e-09
-1.93565e-09
-1.9593e-09
-1.98212e-09
-2.00831e-09
-2.0356e-09
-2.06687e-09
-2.1034e-09
-2.14866e-09
-2.2047e-09
-2.27812e-09
-2.37622e-09
-2.51125e-09
-2.69537e-09
-2.95367e-09
-3.31467e-09
-3.82099e-09
-4.53093e-09
-5.52607e-09
-6.90813e-09
-8.81957e-09
-1.14255e-08
-1.48345e-08
-1.96008e-08
1.61674e-12
-8.57643e-10
-6.23284e-10
-6.41931e-10
-6.7985e-10
-7.16005e-10
-7.5163e-10
-7.85556e-10
-8.19391e-10
-8.50841e-10
-8.80816e-10
-9.08566e-10
-9.34705e-10
-9.59583e-10
-9.84223e-10
-1.00711e-09
-1.03128e-09
-1.05423e-09
-1.0767e-09
-1.09964e-09
-1.12172e-09
-1.14343e-09
-1.16535e-09
-1.18824e-09
-1.21085e-09
-1.23238e-09
-1.2544e-09
-1.27646e-09
-1.29718e-09
-1.3205e-09
-1.34317e-09
-1.36477e-09
-1.38676e-09
-1.40909e-09
-1.43083e-09
-1.4531e-09
-1.47585e-09
-1.4976e-09
-1.51943e-09
-1.54114e-09
-1.56328e-09
-1.58458e-09
-1.60717e-09
-1.62895e-09
-1.65089e-09
-1.67169e-09
-1.69462e-09
-1.71613e-09
-1.7386e-09
-1.75988e-09
-1.78118e-09
-1.8024e-09
-1.82505e-09
-1.84713e-09
-1.86823e-09
-1.89006e-09
-1.91205e-09
-1.9346e-09
-1.9567e-09
-1.98113e-09
-2.00663e-09
-2.03416e-09
-2.06524e-09
-2.10201e-09
-2.14438e-09
-2.20105e-09
-2.27235e-09
-2.36976e-09
-2.50096e-09
-2.68082e-09
-2.93309e-09
-3.28704e-09
-3.78049e-09
-4.47797e-09
-5.45133e-09
-6.804e-09
-8.6838e-09
-1.12477e-08
-1.44382e-08
-2.01991e-08
3.85251e-11
-6.37113e-10
-6.24584e-10
-6.51801e-10
-6.82455e-10
-7.18266e-10
-7.53343e-10
-7.86999e-10
-8.19671e-10
-8.50452e-10
-8.79524e-10
-9.07872e-10
-9.34473e-10
-9.60038e-10
-9.84334e-10
-1.00744e-09
-1.03115e-09
-1.05396e-09
-1.07759e-09
-1.09867e-09
-1.12161e-09
-1.14384e-09
-1.16589e-09
-1.1873e-09
-1.21041e-09
-1.23223e-09
-1.25457e-09
-1.27587e-09
-1.29797e-09
-1.32097e-09
-1.34237e-09
-1.36448e-09
-1.38574e-09
-1.40869e-09
-1.43068e-09
-1.45251e-09
-1.474e-09
-1.49619e-09
-1.5185e-09
-1.54036e-09
-1.56172e-09
-1.58428e-09
-1.60587e-09
-1.62835e-09
-1.65049e-09
-1.67148e-09
-1.69405e-09
-1.71518e-09
-1.73717e-09
-1.75913e-09
-1.78031e-09
-1.8018e-09
-1.82308e-09
-1.84404e-09
-1.86522e-09
-1.88715e-09
-1.90738e-09
-1.92775e-09
-1.94943e-09
-1.97232e-09
-1.99456e-09
-2.01856e-09
-2.04558e-09
-2.07575e-09
-2.11155e-09
-2.15698e-09
-2.21555e-09
-2.29195e-09
-2.40087e-09
-2.54756e-09
-2.75114e-09
-3.04588e-09
-3.45686e-09
-4.03731e-09
-4.85716e-09
-6.01362e-09
-7.6432e-09
-9.9241e-09
-1.30624e-08
-1.82735e-08
-9.54686e-10
-1.04302e-09
-5.92937e-10
-6.23127e-10
-6.55863e-10
-6.88517e-10
-7.21698e-10
-7.55565e-10
-7.88669e-10
-8.20324e-10
-8.51544e-10
-8.80913e-10
-9.08621e-10
-9.36181e-10
-9.60776e-10
-9.85557e-10
-1.00958e-09
-1.03227e-09
-1.05534e-09
-1.07809e-09
-1.10057e-09
-1.12234e-09
-1.14502e-09
-1.16733e-09
-1.18984e-09
-1.21191e-09
-1.23346e-09
-1.25549e-09
-1.27792e-09
-1.2997e-09
-1.32201e-09
-1.34419e-09
-1.36566e-09
-1.38786e-09
-1.40975e-09
-1.43211e-09
-1.45352e-09
-1.47612e-09
-1.49825e-09
-1.51952e-09
-1.54177e-09
-1.56453e-09
-1.58558e-09
-1.60742e-09
-1.63019e-09
-1.65137e-09
-1.67344e-09
-1.69533e-09
-1.71697e-09
-1.73909e-09
-1.7598e-09
-1.78128e-09
-1.80324e-09
-1.82459e-09
-1.84582e-09
-1.86702e-09
-1.88768e-09
-1.90918e-09
-1.93069e-09
-1.95189e-09
-1.97412e-09
-1.99808e-09
-2.02208e-09
-2.04874e-09
-2.08027e-09
-2.11799e-09
-2.16482e-09
-2.22668e-09
-2.3078e-09
-2.41873e-09
-2.57286e-09
-2.79145e-09
-3.09392e-09
-3.52431e-09
-4.1315e-09
-4.98779e-09
-6.19322e-09
-7.88351e-09
-1.02435e-08
-1.35233e-08
-1.76442e-08
-2.19577e-08
-4.32264e-10
4.09184e-10
-5.50819e-10
-6.18323e-10
-6.52241e-10
-6.84792e-10
-7.18075e-10
-7.51749e-10
-7.85084e-10
-8.18143e-10
-8.49314e-10
-8.79665e-10
-9.08412e-10
-9.3441e-10
-9.60055e-10
-9.84624e-10
-1.00785e-09
-1.03178e-09
-1.05432e-09
-1.07666e-09
-1.09972e-09
-1.12202e-09
-1.14439e-09
-1.16639e-09
-1.18804e-09
-1.21016e-09
-1.23228e-09
-1.25484e-09
-1.27649e-09
-1.29857e-09
-1.32066e-09
-1.34206e-09
-1.36464e-09
-1.38671e-09
-1.40871e-09
-1.43057e-09
-1.45333e-09
-1.47494e-09
-1.4966e-09
-1.51892e-09
-1.54085e-09
-1.56315e-09
-1.58481e-09
-1.60677e-09
-1.62791e-09
-1.65068e-09
-1.6722e-09
-1.69444e-09
-1.71593e-09
-1.73777e-09
-1.75942e-09
-1.78039e-09
-1.80234e-09
-1.82364e-09
-1.84547e-09
-1.86598e-09
-1.88677e-09
-1.90823e-09
-1.92981e-09
-1.95191e-09
-1.9741e-09
-1.997e-09
-2.02235e-09
-2.05018e-09
-2.08266e-09
-2.12074e-09
-2.16998e-09
-2.23267e-09
-2.31894e-09
-2.43544e-09
-2.59668e-09
-2.82233e-09
-3.14171e-09
-3.5914e-09
-4.22707e-09
-5.12095e-09
-6.37543e-09
-8.12763e-09
-1.05624e-08
-1.39555e-08
-1.95311e-08
-2.27155e-08
-2.75035e-08
-4.41518e-10
-6.03583e-10
-5.70976e-10
-6.16592e-10
-6.48599e-10
-6.81775e-10
-7.1595e-10
-7.49501e-10
-7.84871e-10
-8.17718e-10
-8.49471e-10
-8.80122e-10
-9.07241e-10
-9.34803e-10
-9.60644e-10
-9.84582e-10
-1.009e-09
-1.03127e-09
-1.05507e-09
-1.07725e-09
-1.09961e-09
-1.12188e-09
-1.14353e-09
-1.16714e-09
-1.18941e-09
-1.21061e-09
-1.2325e-09
-1.25397e-09
-1.27747e-09
-1.29952e-09
-1.32111e-09
-1.3424e-09
-1.36483e-09
-1.3877e-09
-1.41014e-09
-1.43156e-09
-1.45184e-09
-1.47537e-09
-1.49721e-09
-1.51839e-09
-1.54023e-09
-1.56347e-09
-1.58476e-09
-1.60685e-09
-1.6297e-09
-1.64978e-09
-1.67218e-09
-1.69518e-09
-1.71658e-09
-1.73821e-09
-1.75858e-09
-1.7811e-09
-1.80283e-09
-1.82493e-09
-1.84442e-09
-1.86672e-09
-1.88805e-09
-1.90869e-09
-1.93114e-09
-1.95164e-09
-1.97521e-09
-1.99873e-09
-2.02365e-09
-2.05259e-09
-2.08466e-09
-2.12616e-09
-2.17578e-09
-2.24111e-09
-2.33011e-09
-2.44989e-09
-2.61758e-09
-2.85463e-09
-3.18598e-09
-3.65467e-09
-4.31624e-09
-5.24442e-09
-6.5447e-09
-8.35296e-09
-1.08541e-08
-1.42968e-08
-1.89102e-08
-2.31647e-08
-2.81498e-08
-4.92421e-10
-4.17215e-10
-5.24896e-10
-6.13353e-10
-6.46592e-10
-6.81326e-10
-7.17584e-10
-7.53877e-10
-7.87314e-10
-8.20611e-10
-8.52085e-10
-8.81099e-10
-9.10305e-10
-9.3557e-10
-9.61131e-10
-9.86329e-10
-1.00931e-09
-1.0336e-09
-1.05544e-09
-1.0777e-09
-1.10033e-09
-1.12307e-09
-1.14651e-09
-1.16743e-09
-1.18947e-09
-1.21113e-09
-1.23452e-09
-1.25689e-09
-1.27726e-09
-1.2998e-09
-1.3218e-09
-1.34485e-09
-1.36663e-09
-1.38814e-09
-1.40933e-09
-1.43224e-09
-1.45594e-09
-1.47577e-09
-1.49817e-09
-1.52063e-09
-1.54321e-09
-1.56426e-09
-1.58674e-09
-1.60739e-09
-1.62996e-09
-1.6532e-09
-1.67449e-09
-1.6949e-09
-1.71677e-09
-1.73887e-09
-1.76185e-09
-1.78279e-09
-1.8034e-09
-1.8245e-09
-1.84758e-09
-1.8672e-09
-1.88875e-09
-1.91113e-09
-1.93197e-09
-1.95505e-09
-1.97631e-09
-2.00043e-09
-2.02693e-09
-2.05518e-09
-2.09034e-09
-2.13025e-09
-2.18188e-09
-2.25061e-09
-2.34151e-09
-2.46802e-09
-2.64262e-09
-2.88778e-09
-3.23207e-09
-3.71847e-09
-4.40249e-09
-5.36269e-09
-6.7052e-09
-8.56383e-09
-1.11243e-08
-1.46789e-08
-1.94754e-08
-2.35043e-08
-3.02587e-08
-5.51418e-10
-9.71612e-10
-6.0196e-10
-6.23748e-10
-6.51582e-10
-6.8726e-10
-7.23405e-10
-7.58576e-10
-7.92141e-10
-8.24214e-10
-8.55346e-10
-8.85367e-10
-9.12e-10
-9.38174e-10
-9.63279e-10
-9.87364e-10
-1.01108e-09
-1.03419e-09
-1.05725e-09
-1.08081e-09
-1.10206e-09
-1.12535e-09
-1.14718e-09
-1.16926e-09
-1.19141e-09
-1.2137e-09
-1.23509e-09
-1.25755e-09
-1.28015e-09
-1.3015e-09
-1.32316e-09
-1.34522e-09
-1.36849e-09
-1.38979e-09
-1.41277e-09
-1.43354e-09
-1.45665e-09
-1.47939e-09
-1.50038e-09
-1.52371e-09
-1.5452e-09
-1.56759e-09
-1.58954e-09
-1.61109e-09
-1.63227e-09
-1.65404e-09
-1.67509e-09
-1.69806e-09
-1.71955e-09
-1.74066e-09
-1.76264e-09
-1.78363e-09
-1.80469e-09
-1.82801e-09
-1.84804e-09
-1.87018e-09
-1.89056e-09
-1.91201e-09
-1.93419e-09
-1.95585e-09
-1.97985e-09
-2.0036e-09
-2.03035e-09
-2.05862e-09
-2.09364e-09
-2.13503e-09
-2.18961e-09
-2.25883e-09
-2.3547e-09
-2.48514e-09
-2.6653e-09
-2.91856e-09
-3.27417e-09
-3.77498e-09
-4.47931e-09
-5.46632e-09
-6.84284e-09
-8.74646e-09
-1.13528e-08
-1.48907e-08
-1.92893e-08
-2.41316e-08
-3.07102e-08
-5.72612e-10
-1.0436e-09
-6.37346e-10
-6.26312e-10
-6.53353e-10
-6.87809e-10
-7.2366e-10
-7.58286e-10
-7.91723e-10
-8.2318e-10
-8.54466e-10
-8.84054e-10
-9.11385e-10
-9.37044e-10
-9.62078e-10
-9.86371e-10
-1.00963e-09
-1.03308e-09
-1.05588e-09
-1.07907e-09
-1.10085e-09
-1.12398e-09
-1.14502e-09
-1.16754e-09
-1.18986e-09
-1.21146e-09
-1.23442e-09
-1.256e-09
-1.27777e-09
-1.30013e-09
-1.32232e-09
-1.34492e-09
-1.36653e-09
-1.38916e-09
-1.41033e-09
-1.43324e-09
-1.45518e-09
-1.47778e-09
-1.49935e-09
-1.52204e-09
-1.54389e-09
-1.56609e-09
-1.58803e-09
-1.60966e-09
-1.63102e-09
-1.65277e-09
-1.6743e-09
-1.69647e-09
-1.71769e-09
-1.73892e-09
-1.76111e-09
-1.78287e-09
-1.80396e-09
-1.82573e-09
-1.84723e-09
-1.86806e-09
-1.88981e-09
-1.91144e-09
-1.93272e-09
-1.95611e-09
-1.9785e-09
-2.00328e-09
-2.03033e-09
-2.05949e-09
-2.09469e-09
-2.13789e-09
-2.192e-09
-2.26493e-09
-2.36176e-09
-2.49499e-09
-2.68018e-09
-2.93911e-09
-3.30319e-09
-3.81576e-09
-4.5356e-09
-5.54368e-09
-6.94693e-09
-8.88432e-09
-1.15258e-08
-1.50687e-08
-1.94709e-08
-2.45875e-08
-3.11005e-08
-5.70045e-10
-7.37238e-10
-5.57608e-10
-6.22162e-10
-6.53142e-10
-6.88124e-10
-7.23599e-10
-7.58289e-10
-7.91678e-10
-8.23554e-10
-8.54868e-10
-8.84611e-10
-9.12911e-10
-9.38773e-10
-9.63654e-10
-9.87971e-10
-1.01136e-09
-1.03471e-09
-1.05737e-09
-1.07934e-09
-1.1022e-09
-1.12425e-09
-1.14667e-09
-1.16914e-09
-1.19139e-09
-1.21331e-09
-1.23557e-09
-1.25766e-09
-1.27976e-09
-1.30156e-09
-1.3236e-09
-1.34534e-09
-1.36763e-09
-1.38944e-09
-1.4121e-09
-1.43347e-09
-1.45549e-09
-1.47739e-09
-1.49933e-09
-1.52148e-09
-1.54343e-09
-1.56563e-09
-1.58768e-09
-1.6094e-09
-1.63115e-09
-1.65324e-09
-1.67576e-09
-1.69674e-09
-1.71919e-09
-1.74058e-09
-1.76156e-09
-1.78413e-09
-1.80524e-09
-1.8274e-09
-1.84865e-09
-1.87001e-09
-1.89127e-09
-1.91299e-09
-1.93461e-09
-1.95691e-09
-1.98037e-09
-2.0053e-09
-2.03166e-09
-2.06226e-09
-2.09838e-09
-2.14153e-09
-2.19789e-09
-2.27116e-09
-2.36984e-09
-2.50532e-09
-2.69401e-09
-2.95767e-09
-3.32822e-09
-3.84955e-09
-4.58197e-09
-5.60621e-09
-7.0306e-09
-8.99489e-09
-1.16721e-08
-1.53155e-08
-1.99785e-08
-2.61444e-08
-3.15364e-08
-5.75209e-10
-1.05076e-09
-6.76818e-10
-6.24869e-10
-6.52464e-10
-6.87494e-10
-7.22841e-10
-7.57548e-10
-7.90894e-10
-8.22903e-10
-8.54376e-10
-8.8427e-10
-9.12215e-10
-9.38249e-10
-9.63142e-10
-9.86784e-10
-1.01043e-09
-1.03379e-09
-1.05649e-09
-1.07935e-09
-1.10136e-09
-1.12414e-09
-1.1461e-09
-1.1683e-09
-1.1907e-09
-1.21221e-09
-1.23489e-09
-1.25626e-09
-1.27895e-09
-1.30059e-09
-1.32296e-09
-1.34499e-09
-1.36712e-09
-1.38917e-09
-1.41105e-09
-1.43272e-09
-1.45477e-09
-1.47664e-09
-1.49876e-09
-1.52079e-09
-1.54275e-09
-1.56491e-09
-1.58697e-09
-1.60864e-09
-1.63036e-09
-1.65262e-09
-1.6748e-09
-1.69648e-09
-1.71839e-09
-1.74012e-09
-1.76158e-09
-1.78345e-09
-1.80454e-09
-1.82673e-09
-1.84781e-09
-1.86948e-09
-1.8908e-09
-1.91232e-09
-1.93435e-09
-1.95706e-09
-1.98049e-09
-2.00544e-09
-2.03247e-09
-2.06296e-09
-2.09853e-09
-2.14337e-09
-2.20047e-09
-2.27469e-09
-2.37488e-09
-2.51296e-09
-2.70433e-09
-2.97194e-09
-3.34763e-09
-3.87597e-09
-4.61767e-09
-5.65447e-09
-7.09486e-09
-9.07815e-09
-1.17764e-08
-1.53432e-08
-1.97684e-08
-2.62771e-08
-3.19381e-08
-5.13264e-10
-4.35411e-10
-5.52424e-10
-6.19897e-10
-6.52746e-10
-6.87211e-10
-7.2243e-10
-7.57043e-10
-7.90508e-10
-8.22705e-10
-8.54266e-10
-8.84379e-10
-9.12434e-10
-9.38579e-10
-9.63274e-10
-9.87553e-10
-1.01123e-09
-1.03386e-09
-1.05707e-09
-1.07948e-09
-1.10146e-09
-1.12421e-09
-1.14624e-09
-1.16876e-09
-1.19071e-09
-1.2128e-09
-1.23495e-09
-1.25697e-09
-1.27897e-09
-1.30115e-09
-1.32309e-09
-1.34501e-09
-1.36713e-09
-1.38911e-09
-1.41069e-09
-1.43252e-09
-1.45447e-09
-1.47629e-09
-1.49851e-09
-1.52057e-09
-1.54254e-09
-1.56464e-09
-1.58669e-09
-1.6082e-09
-1.63003e-09
-1.6523e-09
-1.67466e-09
-1.69651e-09
-1.71845e-09
-1.74012e-09
-1.76177e-09
-1.78366e-09
-1.80538e-09
-1.82678e-09
-1.84817e-09
-1.86962e-09
-1.89123e-09
-1.91322e-09
-1.93486e-09
-1.95781e-09
-1.98114e-09
-2.00629e-09
-2.03343e-09
-2.06453e-09
-2.10175e-09
-2.14576e-09
-2.20339e-09
-2.27825e-09
-2.3796e-09
-2.51914e-09
-2.71234e-09
-2.98251e-09
-3.36175e-09
-3.89489e-09
-4.64289e-09
-5.68798e-09
-7.13889e-09
-9.13513e-09
-1.18524e-08
-1.55474e-08
-2.04801e-08
-2.65256e-08
-3.22145e-08
-5.53633e-10
-7.5699e-10
-6.2655e-10
-6.22086e-10
-6.52463e-10
-6.86967e-10
-7.22205e-10
-7.56857e-10
-7.90321e-10
-8.22528e-10
-8.5413e-10
-8.84275e-10
-9.12425e-10
-9.38516e-10
-9.63151e-10
-9.87279e-10
-1.01104e-09
-1.03384e-09
-1.05667e-09
-1.07945e-09
-1.10141e-09
-1.12413e-09
-1.14609e-09
-1.16862e-09
-1.19062e-09
-1.21272e-09
-1.23469e-09
-1.2567e-09
-1.27891e-09
-1.30097e-09
-1.32293e-09
-1.3449e-09
-1.36688e-09
-1.38882e-09
-1.41044e-09
-1.43234e-09
-1.45437e-09
-1.47618e-09
-1.49844e-09
-1.52053e-09
-1.54248e-09
-1.5645e-09
-1.5865e-09
-1.60802e-09
-1.62985e-09
-1.6521e-09
-1.67434e-09
-1.69626e-09
-1.7183e-09
-1.74017e-09
-1.76173e-09
-1.78352e-09
-1.80519e-09
-1.82682e-09
-1.84827e-09
-1.86965e-09
-1.89142e-09
-1.91314e-09
-1.93528e-09
-1.95793e-09
-1.98165e-09
-2.00677e-09
-2.03406e-09
-2.0656e-09
-2.10236e-09
-2.14742e-09
-2.20528e-09
-2.28086e-09
-2.38284e-09
-2.52316e-09
-2.71747e-09
-2.98925e-09
-3.37036e-09
-3.90598e-09
-4.65729e-09
-5.70657e-09
-7.16251e-09
-9.16514e-09
-1.18885e-08
-1.55235e-08
-2.02166e-08
-2.65464e-08
-3.23768e-08
-5.60034e-10
-7.72101e-10
-6.27913e-10
-6.22127e-10
-6.52401e-10
-6.8696e-10
-7.22211e-10
-7.56855e-10
-7.9034e-10
-8.2253e-10
-8.54098e-10
-8.84284e-10
-9.12383e-10
-9.38564e-10
-9.63158e-10
-9.87234e-10
-1.01092e-09
-1.03386e-09
-1.05664e-09
-1.07945e-09
-1.10142e-09
-1.12412e-09
-1.1461e-09
-1.16857e-09
-1.19058e-09
-1.21273e-09
-1.23458e-09
-1.25678e-09
-1.27883e-09
-1.30103e-09
-1.32297e-09
-1.34492e-09
-1.3668e-09
-1.38884e-09
-1.41039e-09
-1.43228e-09
-1.45441e-09
-1.47612e-09
-1.49842e-09
-1.52051e-09
-1.54252e-09
-1.56444e-09
-1.58647e-09
-1.60804e-09
-1.6299e-09
-1.65213e-09
-1.67432e-09
-1.69628e-09
-1.71836e-09
-1.7402e-09
-1.7619e-09
-1.78354e-09
-1.8053e-09
-1.82684e-09
-1.84837e-09
-1.86973e-09
-1.89157e-09
-1.91334e-09
-1.93555e-09
-1.95835e-09
-1.98204e-09
-2.00737e-09
-2.03472e-09
-2.06635e-09
-2.10336e-09
-2.1487e-09
-2.20648e-09
-2.28259e-09
-2.38486e-09
-2.5256e-09
-2.72013e-09
-2.99195e-09
-3.3735e-09
-3.90929e-09
-4.66063e-09
-5.70976e-09
-7.16541e-09
-9.16756e-09
-1.18905e-08
-1.55252e-08
-2.02339e-08
-2.65518e-08
-3.24102e-08
-5.10558e-10
-4.72642e-10
-5.53939e-10
-6.20318e-10
-6.52527e-10
-6.87276e-10
-7.22394e-10
-7.57048e-10
-7.90493e-10
-8.2269e-10
-8.54258e-10
-8.84358e-10
-9.12406e-10
-9.38612e-10
-9.6325e-10
-9.87329e-10
-1.01071e-09
-1.03383e-09
-1.05679e-09
-1.07939e-09
-1.1015e-09
-1.12411e-09
-1.14628e-09
-1.16847e-09
-1.19056e-09
-1.21278e-09
-1.23478e-09
-1.25685e-09
-1.27891e-09
-1.30108e-09
-1.32325e-09
-1.34492e-09
-1.36702e-09
-1.389e-09
-1.41056e-09
-1.4324e-09
-1.45457e-09
-1.47614e-09
-1.49835e-09
-1.5204e-09
-1.54246e-09
-1.56447e-09
-1.58644e-09
-1.60817e-09
-1.63008e-09
-1.65241e-09
-1.67455e-09
-1.69652e-09
-1.71867e-09
-1.7403e-09
-1.76219e-09
-1.78366e-09
-1.80558e-09
-1.82706e-09
-1.84883e-09
-1.87003e-09
-1.89174e-09
-1.91362e-09
-1.93602e-09
-1.95892e-09
-1.98256e-09
-2.00795e-09
-2.03549e-09
-2.06698e-09
-2.10404e-09
-2.14959e-09
-2.20758e-09
-2.28338e-09
-2.38561e-09
-2.52594e-09
-2.72005e-09
-2.991e-09
-3.37111e-09
-3.90474e-09
-4.65289e-09
-5.6976e-09
-7.14752e-09
-9.14247e-09
-1.18588e-08
-1.55594e-08
-2.05087e-08
-2.65129e-08
-3.22993e-08
-5.97195e-10
-1.05522e-09
-6.72386e-10
-6.2447e-10
-6.52632e-10
-6.87468e-10
-7.22755e-10
-7.5753e-10
-7.90894e-10
-8.22929e-10
-8.54295e-10
-8.84253e-10
-9.12175e-10
-9.38392e-10
-9.62917e-10
-9.87199e-10
-1.01056e-09
-1.0337e-09
-1.05635e-09
-1.07926e-09
-1.10147e-09
-1.12396e-09
-1.14627e-09
-1.16832e-09
-1.19057e-09
-1.21251e-09
-1.23471e-09
-1.25657e-09
-1.27879e-09
-1.30063e-09
-1.32272e-09
-1.34481e-09
-1.36684e-09
-1.38895e-09
-1.41088e-09
-1.43264e-09
-1.45503e-09
-1.47641e-09
-1.49855e-09
-1.52061e-09