/*--------------------------------*- C++ -*----------------------------------*\
| =========                 |                                                 |
| \\      /  F ield         | OpenFOAM: The Open Source CFD Toolbox           |
|  \\    /   O peration     | Version:  v1906                                 |
|   \\  /    A nd           | Web:      www.OpenFOAM.com                      |
|    \\/     M anipulation  |                                                 |
\*---------------------------------------------------------------------------*/
FoamFile
{
    version     2.0;
    format      ascii;
    class       volScalarField;
    location    "8e-05";
    object      p;
}
// * * * * * * * * * * * * * * * * * * * * * * * * * * * * * * * * * * * * * //

dimensions      [0 2 -2 0 0 0 0];


internalField   nonuniform List<scalar> 
243374
(
9.76044e-05
0.00112165
0.000649316
0.000971873
0.000952691
0.000979032
0.000986254
0.000993647
0.000998941
0.000996909
0.000993737
0.000988388
0.000984224
0.00098039
0.000976237
0.00097354
0.000970892
0.000967964
0.000966347
0.000963587
0.000960897
0.000957555
0.000954348
0.000951478
0.000948261
0.000944158
0.000943044
0.00094293
0.000941802
0.00093929
0.000937442
0.000937435
0.000939653
0.000942293
0.000945041
0.000948679
0.000953445
0.000959415
0.000966647
0.000975409
0.00098648
0.00100042
0.00101792
0.00103993
0.00106763
0.00110254
0.00114761
0.0012054
0.00127745
0.00136495
0.00147153
0.0016026
0.0017692
0.00197788
0.0022373
0.0025591
0.00295979
0.00345762
0.00407348
0.00483883
0.0057905
0.00697419
0.00844336
0.0102654
0.0125225
0.0153119
0.0187466
0.0229596
0.0281237
0.0344031
0.0420009
0.0511108
0.061908
0.0745011
0.0889051
0.104941
0.122088
0.139102
0.155302
0.166662
0.00139988
0.00218488
0.00179188
0.00210327
0.00208231
0.00210937
0.00211698
0.00212431
0.00212843
0.00212536
0.00212238
0.00211789
0.00211418
0.00211045
0.00210664
0.00210424
0.00210162
0.00209863
0.00209697
0.00209409
0.00209143
0.00208809
0.00208482
0.00208175
0.00207838
0.00207394
0.00207281
0.00207309
0.00207226
0.00206988
0.00206808
0.00206795
0.00206998
0.00207259
0.00207539
0.00207915
0.00208402
0.00209006
0.0020974
0.0021063
0.00211749
0.00213155
0.00214924
0.00217157
0.00219962
0.00223499
0.0022807
0.00233915
0.00241197
0.00250052
0.0026082
0.00274047
0.00290901
0.00312023
0.00338263
0.00370799
0.00411319
0.00461676
0.00523936
0.00601315
0.00697523
0.00817178
0.00965666
0.0114979
0.0137786
0.0165952
0.0200619
0.024313
0.0295235
0.0358531
0.0435035
0.0526686
0.0635115
0.0761243
0.0905116
0.106478
0.123493
0.140336
0.156303
0.167758
-0.000429348
0.000720198
0.000237469
0.000600192
0.000588355
0.000622053
0.000632228
0.000640007
0.000644488
0.000640813
0.000639236
0.000635624
0.00063298
0.000630012
0.000626445
0.000624305
0.000621717
0.000618683
0.000617032
0.000614048
0.000611585
0.000608383
0.000605046
0.000602036
0.000598698
0.000594006
0.000592912
0.000593602
0.000593026
0.000590663
0.000588818
0.000588631
0.000590408
0.000592924
0.000595752
0.000599485
0.000604384
0.000610485
0.000617909
0.000626841
0.000638001
0.000652141
0.000669997
0.000692445
0.000720713
0.000756629
0.000802993
0.000861994
0.000935518
0.00102473
0.00113293
0.00126614
0.00143616
0.00164918
0.00191394
0.00224204
0.00265053
0.00315866
0.00378665
0.0045669
0.00553686
0.00674316
0.00824012
0.010096
0.012395
0.0152325
0.0187239
0.0230034
0.0282517
0.0346207
0.0423142
0.051527
0.0624104
0.0750583
0.0894548
0.10539
0.122322
0.13901
0.154985
0.166102
0.000308407
0.000430057
0.0021836
0.00163276
0.00198267
0.00195888
0.00198499
0.00198998
0.00199565
0.00199802
0.00199117
0.00198875
0.00198448
0.00198198
0.00197845
0.00197469
0.0019724
0.00196956
0.00196617
0.00196428
0.00196117
0.00195861
0.00195537
0.00195201
0.00194874
0.00194523
0.00194036
0.00193926
0.00194034
0.00194001
0.0019378
0.00193607
0.00193574
0.001937
0.00193933
0.00194229
0.00194617
0.00195114
0.00195735
0.00196484
0.00197392
0.00198527
0.0019995
0.00201755
0.00204034
0.00206899
0.0021055
0.00215254
0.00221201
0.00228612
0.00237627
0.00248547
0.00261986
0.00279157
0.00300678
0.00327406
0.00360523
0.00401761
0.00453069
0.00516464
0.00595241
0.00693174
0.00814961
0.00966062
0.0115337
0.0138543
0.0167169
0.0202381
0.0245525
0.0298478
0.0362654
0.0440131
0.0532913
0.0642373
0.0769488
0.0913823
0.10734
0.124265
0.140934
0.157054
0.167904
0.175914
-0.00115814
-0.000602094
0.000983335
0.000395028
0.000805764
0.00080195
0.000843443
0.000859016
0.00086718
0.000870441
0.000865396
0.000865287
0.000862813
0.000862158
0.000859878
0.000856854
0.000855073
0.000852648
0.000849361
0.000847512
0.000844525
0.000842261
0.000839268
0.000836023
0.000832922
0.000829492
0.000824625
0.00082354
0.000824882
0.000824728
0.000822586
0.000820838
0.000820375
0.00082143
0.00082369
0.000826583
0.0008304
0.000835344
0.000841514
0.000849091
0.000858172
0.000869457
0.000883799
0.000902013
0.00092493
0.000953778
0.000990792
0.00103841
0.00109836
0.00117302
0.00126362
0.00137322
0.00150857
0.00168151
0.00189813
0.00216727
0.00250083
0.00291595
0.00343253
0.00407107
0.00486432
0.00585029
0.00707639
0.00859752
0.0104828
0.0128189
0.0157002
0.0192423
0.0235813
0.0289104
0.035374
0.0431746
0.0524982
0.063491
0.0762497
0.0907104
0.106688
0.123598
0.140193
0.156311
0.167243
0.177268
0.18449
-0.0011785
-1.94977e-05
0.00176789
0.00115043
0.00153393
0.00151614
0.0015465
0.00156069
0.00156686
0.00156676
0.00155933
0.00155777
0.00155391
0.00155251
0.00154962
0.00154611
0.00154394
0.00154108
0.00153742
0.00153535
0.00153224
0.00152985
0.00152677
0.00152343
0.00152016
0.00151664
0.00151173
0.00151065
0.00151213
0.00151204
0.00151002
0.00150843
0.00150794
0.00150856
0.00151062
0.00151369
0.00151759
0.00152261
0.0015289
0.00153644
0.00154559
0.00155701
0.00157138
0.00158973
0.00161289
0.00164208
0.00167957
0.00172766
0.00178793
0.00186299
0.00195432
0.00206487
0.00220132
0.00237552
0.00259384
0.00286498
0.00320101
0.0036193
0.00413974
0.00478321
0.00558259
0.0065764
0.00781217
0.00934502
0.0112448
0.0135993
0.0165032
0.0200716
0.0244423
0.0298149
0.0363346
0.0441975
0.0535847
0.0646512
0.0775053
0.0920795
0.10816
0.125187
0.141932
0.158294
0.169398
0.179061
0.194126
-0.00115151
-0.000406317
0.00137196
0.000749801
0.00116628
0.00116045
0.00119842
0.00121473
0.00122402
0.00122592
0.00122016
0.00121982
0.00121718
0.00121685
0.00121463
0.00121163
0.00120978
0.00120728
0.00120364
0.00120155
0.00119861
0.00119636
0.00119344
0.0011903
0.00118709
0.00118359
0.00117877
0.00117767
0.00117924
0.00117923
0.00117727
0.00117565
0.00117506
0.00117576
0.00117784
0.0011808
0.00118472
0.00118969
0.00119587
0.00120356
0.00121277
0.00122422
0.00123872
0.00125718
0.00128049
0.00130984
0.00134759
0.00139602
0.00145664
0.00153208
0.00162372
0.00173469
0.00187195
0.00204714
0.00226655
0.00253904
0.0028769
0.00329737
0.00382046
0.00446748
0.00527113
0.00627026
0.00751262
0.00905369
0.0109636
0.0133311
0.0162512
0.0198386
0.0242328
0.0296369
0.0361965
0.0441062
0.0535517
0.064685
0.0776105
0.0922712
0.108427
0.125524
0.142295
0.158713
0.17021
0.180811
0.200044
-0.00113701
-0.000405606
0.0013723
0.000750115
0.00116657
0.00116068
0.00119872
0.00121496
0.00122419
0.00122604
0.00122034
0.00121993
0.00121726
0.00121692
0.00121469
0.00121166
0.00120979
0.00120729
0.0012037
0.00120165
0.00119871
0.00119652
0.00119358
0.00119037
0.00118718
0.00118371
0.00117878
0.00117769
0.00117933
0.00117931
0.00117732
0.00117578
0.00117524
0.00117585
0.00117793
0.00118103
0.00118499
0.00119002
0.00119632
0.00120381
0.00121299
0.00122446
0.00123898
0.00125752
0.00128091
0.00131044
0.00134842
0.00139708
0.00145792
0.00153368
0.00162577
0.00173728
0.0018752
0.00205128
0.00227174
0.00254551
0.002885
0.00330754
0.00383324
0.0044835
0.00529113
0.00629541
0.00754417
0.00909333
0.0110135
0.0133939
0.0163303
0.0199385
0.0243594
0.0297971
0.0363997
0.0443631
0.0538768
0.0650954
0.0781285
0.0929236
0.109231
0.12651
0.143491
0.160135
0.171703
0.182445
0.202836
-0.00112706
-1.77398e-05
0.00176869
0.00115085
0.00153416
0.00151635
0.00154678
0.00156081
0.00156698
0.00156697
0.00155969
0.00155793
0.0015541
0.00155273
0.00154989
0.00154644
0.00154425
0.00154137
0.00153761
0.00153537
0.00153228
0.00152996
0.00152689
0.00152359
0.00152026
0.00151674
0.00151174
0.0015107
0.00151234
0.00151226
0.00151025
0.0015087
0.00150816
0.001509
0.0015112
0.00151424
0.00151819
0.00152322
0.00152945
0.00153705
0.00154628
0.00155778
0.00157232
0.00159081
0.0016143
0.00164394
0.00168189
0.00173064
0.00179177
0.00186781
0.00196015
0.00207211
0.00221048
0.00238725
0.00260855
0.00288338
0.00322414
0.00364831
0.00417621
0.00482891
0.00563955
0.0066479
0.00790178
0.00945752
0.0113862
0.0137771
0.0167272
0.0203545
0.0248001
0.0302673
0.0369079
0.0449213
0.0545
0.0658049
0.078957
0.0939001
0.110391
0.127893
0.145142
0.162045
0.173718
0.18395
0.202601
-0.0011734
-0.000599182
0.000984472
0.000395663
0.000806158
0.000802158
0.000843645
0.000859178
0.000867247
0.000870427
0.000865619
0.000865264
0.000862748
0.000862048
0.000859744
0.000856761
0.000855033
0.000852603
0.00084923
0.000847293
0.000844383
0.000842213
0.000839221
0.000835985
0.000832816
0.000829433
0.000824287
0.000823154
0.000824775
0.000824643
0.000822473
0.00082089
0.000820476
0.000821649
0.000824006
0.000827194
0.000831264
0.000836328
0.000842597
0.000850108
0.000859336
0.000870835
0.000885418
0.000904036
0.000927525
0.000957202
0.000995205
0.00104399
0.00110521
0.00118148
0.00127414
0.00138639
0.00152504
0.00170241
0.00192431
0.00219983
0.00254144
0.00296692
0.00349654
0.00415124
0.0049644
0.00597586
0.00723371
0.00879496
0.0107309
0.013131
0.0160931
0.0197389
0.0242094
0.029705
0.0363814
0.044447
0.0541084
0.065523
0.078811
0.0939309
0.110646
0.128425
0.145983
0.163122
0.175234
0.185321
0.198971
-0.00106446
0.000434776
0.00218551
0.00163386
0.00198342
0.00195955
0.00198561
0.00199051
0.0019961
0.00199852
0.00199185
0.00198914
0.0019849
0.00198246
0.001979
0.00197526
0.00197292
0.00197003
0.00196656
0.00196446
0.00196138
0.00195898
0.00195572
0.00195229
0.00194894
0.00194551
0.00194039
0.00193943
0.00194081
0.0019404
0.00193822
0.00193668
0.00193638
0.00193795
0.00194053
0.00194367
0.00194766
0.00195274
0.00195897
0.00196644
0.00197555
0.00198699
0.00200151
0.00201997
0.00204349
0.00207321
0.00211098
0.00215962
0.00222098
0.00229734
0.00239007
0.00250274
0.00264166
0.00281933
0.00304166
0.00331779
0.00366007
0.00408642
0.00461719
0.00527306
0.00608778
0.00710157
0.00836249
0.00992785
0.0118696
0.0142768
0.0172488
0.0209106
0.0254029
0.0309234
0.0376298
0.0457363
0.055471
0.0669874
0.0804144
0.0957257
0.112693
0.130791
0.148747
0.166219
0.17837
0.186759
0.191314
-0.000588429
-0.000422141
0.000722281
0.000238509
0.000600763
0.000588631
0.000622227
0.000632397
0.00064005
0.000644421
0.000640952
0.000639134
0.000635516
0.000632896
0.000629922
0.000626404
0.000624334
0.000621759
0.000618574
0.000616735
0.000613856
0.000611487
0.000608292
0.000605001
0.000601881
0.000598585
0.000593541
0.000592352
0.000593378
0.000592835
0.000590538
0.000588945
0.000588794
0.000590928
0.000593711
0.00059694
0.000601046
0.000606128
0.000612326
0.000619757
0.000628952
0.000640399
0.00065499
0.000673546
0.000697006
0.000726715
0.000764385
0.000812815
0.000874145
0.000950541
0.00104337
0.00115624
0.00129532
0.00147313
0.00169545
0.00197155
0.00231398
0.0027407
0.00327185
0.00392849
0.00474426
0.00575915
0.00702167
0.00858967
0.0105352
0.0129475
0.0159275
0.0196028
0.024115
0.0296583
0.0364039
0.0445671
0.0543763
0.0660062
0.0795936
0.0951298
0.112403
0.130885
0.149284
0.167043
0.180096
0.189287
0.0014104
0.00218758
0.00179331
0.00210417
0.00208302
0.00210995
0.00211742
0.00212466
0.00212874
0.00212575
0.00212255
0.00211814
0.0021145
0.00211085
0.00210704
0.00210461
0.00210195
0.00209887
0.00209703
0.00209415
0.00209164
0.00208829
0.00208491
0.00208173
0.00207847
0.00207373
0.00207272
0.00207332
0.00207238
0.00207007
0.00206857
0.00206858
0.00207102
0.00207398
0.0020772
0.00208122
0.0020863
0.00209246
0.00209983
0.00210886
0.00212022
0.00213477
0.00215322
0.00217669
0.00220641
0.00224385
0.00229207
0.00235341
0.00242966
0.00252238
0.0026355
0.00277478
0.00295245
0.00317472
0.00345083
0.00379332
0.00422011
0.00475111
0.00540774
0.00622369
0.00723915
0.00850258
0.0100719
0.0120198
0.0144351
0.017421
0.0211066
0.0256343
0.0311958
0.037973
0.0461816
0.0560545
0.067784
0.0815183
0.0972638
0.114829
0.133697
0.152591
0.170682
0.184357
0.000119077
0.00112452
0.000650804
0.000972792
0.000953265
0.000979452
0.000986624
0.000993873
0.000999007
0.000997057
0.000993694
0.000988424
0.00098439
0.000980609
0.000976478
0.000973808
0.000971165
0.00096813
0.000966328
0.000963597
0.000960957
0.000957635
0.000954427
0.000951432
0.000948269
0.000943854
0.000942672
0.00094282
0.000941696
0.000939367
0.000937838
0.000937927
0.000940667
0.000943702
0.000946907
0.000950967
0.000956014
0.000962089
0.000969357
0.000978439
0.000989779
0.00100435
0.00102284
0.00104623
0.00107591
0.00111323
0.00116119
0.00122234
0.00129849
0.00139109
0.00150423
0.00164354
0.00182089
0.00204267
0.00231819
0.00266022
0.00308649
0.00361663
0.00427279
0.00508837
0.0061033
0.00736626
0.00893555
0.010884
0.0133007
0.0162905
0.0199848
0.0245261
0.0301057
0.0369164
0.0451761
0.0551259
0.0669761
0.0808927
0.0969063
0.114848
0.134208
0.153673
0.172421
0.186083
-0.00055345
0.000962577
0.000474779
0.000768553
0.000771922
0.000800475
0.000810922
0.00081564
0.00081893
0.000817324
0.000811694
0.000807243
0.00080277
0.000797642
0.000792462
0.000788117
0.000784099
0.000780254
0.000777013
0.000773822
0.000770586
0.000767042
0.000764044
0.000761294
0.000758409
0.000755882
0.000754478
0.000753195
0.000751112
0.00074874
0.000747296
0.00074707
0.000748453
0.000750564
0.00075299
0.000756204
0.00076044
0.000765848
0.000772488
0.000780753
0.00079127
0.000804616
0.000821467
0.000842457
0.000868732
0.000902027
0.000944724
0.000999175
0.00106713
0.00114976
0.00125129
0.00137693
0.00153453
0.00173157
0.00197681
0.00228168
0.00266097
0.00313147
0.00371541
0.00444179
0.00534486
0.00646767
0.00786172
0.00959171
0.0117359
0.0143896
0.0176657
0.0216976
0.0266496
0.0326924
0.0400417
0.048932
0.0595888
0.0722265
0.0869093
0.103589
0.121887
0.140654
0.158986
0.171598
0.000121837
0.000791238
0.00197198
0.00160772
0.00192695
0.00195035
0.00199454
0.0020177
0.00203373
0.00204618
0.00205176
0.00205212
0.00205221
0.00205272
0.00205136
0.00204958
0.00204852
0.00204709
0.00204551
0.00204426
0.00204245
0.00204045
0.00203777
0.0020354
0.0020333
0.0020308
0.00202828
0.00202723
0.00202627
0.0020244
0.00202208
0.00202058
0.00202049
0.00202221
0.00202452
0.00202705
0.00203046
0.00203482
0.0020403
0.00204716
0.00205557
0.00206625
0.0020798
0.00209679
0.002118
0.00214472
0.00217835
0.00222151
0.00227683
0.00234576
0.00242953
0.00253234
0.00265918
0.0028187
0.00301829
0.00326654
0.00357524
0.00395931
0.00443561
0.00502658
0.00576158
0.00667551
0.00781198
0.0092228
0.0109735
0.0131432
0.0158283
0.0191407
0.0232146
0.0282135
0.0343108
0.041713
0.0506382
0.0613011
0.0738857
0.088439
0.104873
0.12277
0.140977
0.158565
0.171185
0.174569
-0.000506438
-0.000532916
0.00101406
0.000477435
0.000791091
0.000787171
0.000813488
0.000827588
0.000835959
0.000842273
0.000842158
0.000837834
0.00083287
0.000828866
0.000824495
0.000820016
0.000816849
0.000813939
0.000811043
0.000808999
0.000806392
0.000803568
0.000800207
0.000797321
0.000794703
0.000791792
0.000788807
0.000787598
0.000786631
0.000784781
0.000782204
0.000780509
0.000780442
0.000782397
0.000784834
0.000787418
0.000790822
0.000795333
0.000801034
0.000807905
0.000816398
0.000827212
0.000840842
0.000857994
0.000879477
0.000906387
0.00094032
0.000984035
0.00104011
0.00111008
0.00119495
0.0012989
0.0014271
0.00158873
0.001791
0.00204263
0.00235523
0.00274439
0.00322717
0.00382563
0.00456976
0.00549508
0.00664589
0.00807458
0.00984682
0.0120428
0.0147602
0.0181099
0.0222247
0.0272714
0.0334202
0.0408848
0.0498674
0.0605779
0.0731656
0.0876636
0.10397
0.121618
0.13944
0.156775
0.168197
0.173144
0.144253
-0.00138001
0.000733108
0.00193667
0.00150934
0.00185604
0.00188282
0.00193439
0.00196767
0.00199375
0.0020138
0.0020231
0.00202664
0.00202719
0.00202861
0.0020288
0.00202797
0.00202816
0.00202771
0.0020267
0.00202663
0.00202515
0.00202341
0.00202095
0.0020186
0.00201644
0.00201382
0.00201058
0.00200968
0.00200929
0.00200786
0.00200549
0.0020039
0.00200384
0.00200612
0.00200883
0.00201146
0.00201509
0.00201972
0.00202541
0.00203256
0.00204125
0.00205214
0.00206593
0.00208321
0.00210488
0.00213223
0.00216636
0.00221037
0.00226715
0.00233788
0.0024238
0.00252886
0.00265787
0.00282129
0.00302598
0.00328034
0.00359628
0.0039896
0.00447764
0.00508216
0.00583379
0.00676866
0.00793133
0.0093742
0.0111644
0.0133824
0.0161259
0.0195066
0.0236568
0.0287448
0.0349385
0.0424476
0.0514657
0.0621873
0.0747437
0.0891495
0.10528
0.122643
0.140067
0.156856
0.168711
0.1726
0.155735
-0.00024866
-2.48104e-05
0.00162026
0.00122329
0.00153732
0.00152417
0.00155386
0.00156324
0.00157324
0.00158279
0.00158361
0.00158179
0.00157823
0.00157531
0.00157279
0.00156994
0.00156851
0.00156696
0.00156502
0.00156439
0.00156241
0.00156033
0.0015575
0.0015548
0.00155237
0.00154951
0.00154575
0.00154483
0.00154465
0.00154346
0.00154092
0.0015391
0.00153921
0.00154163
0.0015443
0.001547
0.0015506
0.00155537
0.00156133
0.00156848
0.00157716
0.0015882
0.00160207
0.00161946
0.00164133
0.00166881
0.00170338
0.00174806
0.00180549
0.00187712
0.00196404
0.00207001
0.00220022
0.00236563
0.00257279
0.00283036
0.00314988
0.00354779
0.00404204
0.00465362
0.00541376
0.00635904
0.00753499
0.0089946
0.0108053
0.0130488
0.0158226
0.0192389
0.0234301
0.028568
0.0348176
0.0423847
0.0514619
0.0622324
0.0748115
0.0892122
0.105286
0.122513
0.139703
0.156193
0.167088
0.172474
0.166221
0.000324059
0.0021803
0.00293315
0.0025813
0.00280865
0.00279953
0.00282652
0.00283743
0.00285277
0.00286566
0.00286977
0.0028722
0.00287156
0.00287155
0.0028716
0.00287172
0.00287331
0.00287374
0.00287342
0.00287465
0.00287385
0.002873
0.00287117
0.00286914
0.00286708
0.00286456
0.00286052
0.00286001
0.00286075
0.00286022
0.00285793
0.00285625
0.00285625
0.00285871
0.00286154
0.00286432
0.00286809
0.002873
0.00287904
0.00288632
0.00289515
0.00290626
0.00292019
0.00293773
0.00295988
0.00298764
0.00302242
0.00306756
0.0031256
0.00319791
0.0032857
0.00339241
0.00352303
0.00369008
0.0038994
0.00415937
0.00448154
0.00488287
0.00538184
0.00599841
0.00676504
0.00771852
0.00890477
0.010377
0.0122039
0.0144683
0.0172652
0.0207095
0.0249335
0.0301127
0.0364048
0.0440137
0.0531389
0.0639546
0.0765333
0.0908702
0.10688
0.12399
0.141068
0.157339
0.169348
0.17314
0.168874
0.000639569
0.000606615
0.00159197
0.00123636
0.00149691
0.00147065
0.00148758
0.00148975
0.00150265
0.00151793
0.00152285
0.00152812
0.00152785
0.00152864
0.00153064
0.00153165
0.00153468
0.00153589
0.00153612
0.00153814
0.00153766
0.00153748
0.00153614
0.00153433
0.00153261
0.00153034
0.00152593
0.00152566
0.00152719
0.0015271
0.00152481
0.00152309
0.00152309
0.00152524
0.00152796
0.00153082
0.00153462
0.00153956
0.00154566
0.00155306
0.00156193
0.001573
0.00158703
0.00160471
0.00162696
0.00165499
0.00169045
0.00173641
0.00179507
0.00186825
0.00195688
0.00206411
0.00219559
0.00236435
0.00257577
0.00283844
0.00316359
0.00356863
0.00407303
0.00469562
0.0054695
0.00643185
0.00762913
0.00911504
0.010959
0.0132451
0.0160665
0.019541
0.0237976
0.0290207
0.035353
0.043004
0.0521838
0.0630465
0.0756817
0.0900757
0.106042
0.123036
0.139928
0.155996
0.167961
0.173412
0.171994
-0.000112239
0.0031844
0.00295981
0.00273304
0.00287217
0.00281047
0.00280718
0.00279759
0.00283359
0.00285765
0.00285868
0.00286315
0.00286124
0.00286091
0.00286327
0.0028649
0.00286876
0.00287065
0.0028713
0.00287374
0.00287362
0.00287384
0.00287293
0.0028714
0.00286968
0.00286747
0.00286303
0.00286295
0.0028652
0.00286554
0.00286348
0.00286192
0.00286175
0.00286324
0.00286579
0.00286883
0.00287275
0.00287779
0.00288402
0.00289148
0.0029005
0.00291171
0.0029258
0.00294369
0.0029663
0.00299461
0.00303069
0.00307739
0.00313644
0.00321016
0.0032996
0.00340752
0.00353984
0.00371005
0.00392334
0.00418817
0.00451588
0.00492421
0.005433
0.00606074
0.00684114
0.00781153
0.00901878
0.0105171
0.0123766
0.0146825
0.0175269
0.0210296
0.0253173
0.0305878
0.0369376
0.0445935
0.0538285
0.0647478
0.077449
0.091881
0.107884
0.12489
0.141846
0.157685
0.171341
0.171548
0.177421
-0.000507207
0.00205687
0.00198125
0.00181131
0.00195656
0.0018688
0.00185909
0.00185473
0.00186774
0.00188194
0.00188689
0.00189146
0.00188901
0.00188972
0.00189396
0.00189662
0.00190144
0.0019042
0.00190514
0.00190792
0.00190807
0.00190864
0.00190803
0.00190676
0.00190531
0.00190329
0.00189896
0.00189895
0.0019016
0.00190217
0.00190025
0.00189877
0.0018985
0.0018996
0.001902
0.00190501
0.00190892
0.00191391
0.00192007
0.00192761
0.00193663
0.0019478
0.00196199
0.00198006
0.00200278
0.00203134
0.00206809
0.00211551
0.00217506
0.00224938
0.00233935
0.00244773
0.00258119
0.00275275
0.00296764
0.00323453
0.00356497
0.00397648
0.00448925
0.00512231
0.00590894
0.0068868
0.00810336
0.00961303
0.0114863
0.0138098
0.0166763
0.0202042
0.02452
0.0298229
0.0362467
0.0440088
0.053305
0.0642768
0.0770472
0.0915068
0.10757
0.124601
0.141558
0.157313
0.171133
0.173111
0.182979
-0.000959878
0.0032322
0.00267214
0.00248897
0.00258137
0.00249396
0.00247097
0.00248938
0.00249931
0.00250758
0.00251277
0.00251595
0.00251099
0.00251097
0.00251562
0.00251877
0.00252404
0.00252703
0.00252828
0.00253119
0.00253159
0.00253229
0.00253188
0.00253074
0.00252934
0.00252741
0.00252333
0.00252341
0.00252623
0.00252692
0.00252523
0.00252396
0.00252368
0.00252434
0.00252656
0.00252977
0.00253372
0.00253878
0.00254511
0.00255261
0.0025617
0.00257297
0.00258722
0.00260544
0.00262842
0.00265729
0.00269447
0.0027423
0.00280205
0.0028766
0.00296715
0.0030763
0.0032108
0.00338332
0.00359958
0.00386809
0.00420061
0.00461476
0.00513063
0.005768
0.00655981
0.00754418
0.00876877
0.0102883
0.0121737
0.0145127
0.0173993
0.0209495
0.025291
0.0306294
0.0371113
0.0449407
0.0542684
0.0652481
0.0780896
0.09269
0.108832
0.125949
0.143028
0.158874
0.173502
0.174227
0.187318
-0.00117839
0.00287978
0.00237457
0.00224375
0.00234087
0.00225651
0.00222563
0.00221243
0.00222237
0.00223141
0.00223871
0.00224179
0.00223596
0.00223604
0.00224105
0.00224455
0.00224981
0.00225355
0.0022545
0.00225732
0.00225784
0.00225856
0.00225825
0.0022573
0.00225595
0.00225402
0.00225007
0.00225013
0.00225299
0.00225374
0.00225213
0.00225089
0.00225055
0.00225125
0.00225345
0.00225656
0.00226056
0.00226558
0.0022718
0.00227945
0.00228864
0.00230003
0.00231442
0.00233275
0.0023559
0.00238497
0.00242247
0.00247064
0.00253079
0.00260574
0.00269665
0.00280637
0.00294189
0.00311553
0.00333306
0.00360309
0.00393784
0.00435459
0.00487346
0.00551508
0.00631193
0.00730259
0.00853493
0.0100641
0.0119613
0.0143155
0.0172217
0.0207945
0.0251634
0.0305368
0.0370678
0.044956
0.0543744
0.065456
0.078357
0.0930923
0.109343
0.126578
0.143783
0.15972
0.174614
0.175725
0.190498
-0.00117782
0.00288027
0.00237486
0.00224392
0.002341
0.00225663
0.00222625
0.00221263
0.00222249
0.00223143
0.00223884
0.00224183
0.00223597
0.00223609
0.0022411
0.00224457
0.00224979
0.00225351
0.0022545
0.00225733
0.00225785
0.00225865
0.00225832
0.00225732
0.00225597
0.0022541
0.00225004
0.00225012
0.00225307
0.0022538
0.00225215
0.00225097
0.00225066
0.00225129
0.0022535
0.00225673
0.00226075
0.00226582
0.00227216
0.00227967
0.00228883
0.00230023
0.00231466
0.00233308
0.0023563
0.00238557
0.00242327
0.00247168
0.00253201
0.00260731
0.00269868
0.00280893
0.00294513
0.00311966
0.00333824
0.00360958
0.00394593
0.00436476
0.00488626
0.00553114
0.00633189
0.00732772
0.00856647
0.0101037
0.0120111
0.0143781
0.0173006
0.0208942
0.0252895
0.0306963
0.0372701
0.0452116
0.0546975
0.0658639
0.0788706
0.0937398
0.110139
0.127547
0.144943
0.161071
0.176165
0.177424
0.192538
-0.000958839
0.00323388
0.00267294
0.00248941
0.00258162
0.00249417
0.00247127
0.00248936
0.00249935
0.00250781
0.00251322
0.00251606
0.00251111
0.00251109
0.00251578
0.00251899
0.00252425
0.00252723
0.00252837
0.00253111
0.00253155
0.00253234
0.00253191
0.0025308
0.00252932
0.00252744
0.00252319
0.00252332
0.00252639
0.00252707
0.00252536
0.00252417
0.00252384
0.00252469
0.00252702
0.00253021
0.00253425
0.00253934
0.00254564
0.00255324
0.00256248
0.00257395
0.00258838
0.00260676
0.00263009
0.00265947
0.00269719
0.00274573
0.0028064
0.00288207
0.00297373
0.00308444
0.00322104
0.00339643
0.00361596
0.00388855
0.00422632
0.00464699
0.00517111
0.00581866
0.00662279
0.00762334
0.00886796
0.0104128
0.01233
0.0147093
0.0176469
0.0212624
0.0256866
0.0311294
0.0377461
0.0457428
0.0552816
0.0665215
0.0796934
0.0947132
0.111314
0.128975
0.146658
0.16317
0.178402
0.179369
0.193433
-0.000505519
0.00205933
0.00198228
0.00181167
0.00195673
0.00186877
0.0018591
0.00185474
0.0018676
0.00188172
0.00188708
0.00189128
0.00188881
0.00188948
0.00189371
0.0018964
0.00190125
0.00190398
0.00190482
0.00190747
0.00190773
0.00190845
0.00190784
0.00190657
0.00190503
0.00190311
0.00189842
0.00189839
0.00190142
0.00190198
0.00189999
0.00189868
0.00189841
0.00189962
0.00190212
0.00190543
0.00190956
0.00191467
0.00192099
0.00192853
0.00193776
0.00194925
0.00196378
0.00198229
0.00200563
0.00203504
0.00207274
0.00212133
0.00218212
0.00225809
0.00235013
0.00246118
0.002598
0.00277409
0.00299431
0.00326768
0.0036063
0.00402832
0.00455437
0.00520383
0.00601044
0.00701425
0.00826297
0.00981322
0.0117376
0.0141258
0.017074
0.0207068
0.0251559
0.0306264
0.0372672
0.0452976
0.054934
0.0663302
0.0796319
0.0947968
0.111579
0.129488
0.147417
0.164187
0.179064
0.18167
0.193203
-0.000109832
0.00318861
0.00296186
0.00273419
0.00287296
0.00281116
0.00280782
0.00279801
0.00283391
0.0028582
0.00285948
0.00286352
0.00286165
0.00286134
0.00286377
0.0028654
0.00286923
0.00287107
0.00287162
0.00287382
0.00287375
0.00287417
0.00287321
0.00287158
0.00286976
0.00286772
0.00286293
0.002863
0.00286568
0.0028659
0.00286383
0.00286252
0.00286237
0.00286417
0.00286692
0.00287019
0.00287427
0.00287943
0.00288571
0.00289317
0.00290226
0.00291362
0.00292802
0.00294634
0.00296972
0.00299921
0.00303665
0.00308506
0.0031461
0.00322223
0.0033144
0.00342598
0.0035631
0.0037397
0.00396057
0.00423482
0.00457439
0.00499762
0.0055253
0.00617637
0.00698525
0.00799241
0.00924546
0.0108016
0.0127339
0.0151319
0.0180927
0.0217447
0.0262214
0.0317292
0.0383917
0.0464306
0.0561493
0.0676744
0.0811355
0.0965172
0.113596
0.131862
0.150218
0.167533
0.18268
0.183455
0.191814
0.000581449
0.000612088
0.00159404
0.00123726
0.00149745
0.00147089
0.00148771
0.00148984
0.00150258
0.00151779
0.00152295
0.00152793
0.00152768
0.0015285
0.0015305
0.00153154
0.00153465
0.00153587
0.00153593
0.00153772
0.00153737
0.00153733
0.00153599
0.00153422
0.00153235
0.00153018
0.00152534
0.001525
0.00152696
0.00152685
0.00152461
0.00152317
0.00152318
0.00152571
0.00152872
0.00153202
0.00153616
0.0015413
0.00154752
0.00155493
0.00156412
0.0015755
0.00159002
0.00160845
0.00163176
0.00166125
0.00169853
0.00174665
0.00180771
0.00188388
0.00197621
0.00208826
0.00222579
0.00240267
0.00262369
0.00289809
0.0032381
0.00366203
0.00419029
0.00484256
0.0056531
0.006662
0.0079174
0.00947674
0.0114133
0.0138164
0.016785
0.0204496
0.0249472
0.0304736
0.0371966
0.0453333
0.0551287
0.0667611
0.0803674
0.0959478
0.113294
0.13189
0.150549
0.168534
0.182434
0.188498
0.189566
0.000866421
0.0021883
0.00293602
0.00258285
0.00280959
0.00280024
0.00282706
0.00283774
0.00285305
0.00286601
0.00287015
0.00287233
0.0028718
0.00287184
0.00287196
0.00287208
0.00287365
0.00287406
0.00287362
0.00287463
0.00287386
0.00287322
0.00287132
0.00286913
0.00286698
0.00286458
0.00286018
0.00285987
0.00286101
0.00286031
0.00285808
0.00285673
0.00285691
0.00285977
0.00286294
0.00286624
0.00287028
0.00287543
0.00288163
0.00288898
0.00289795
0.00290921
0.00292366
0.00294197
0.00296533
0.00299488
0.00303197
0.00307989
0.003141
0.00321697
0.00330919
0.00342169
0.0035598
0.00373668
0.00395782
0.00423252
0.00457306
0.00499753
0.00552594
0.00617901
0.00699074
0.00800141
0.00925928
0.010822
0.0127629
0.0151714
0.0181494
0.0218281
0.0263486
0.031902
0.0386739
0.0468799
0.0567608
0.0685214
0.0823153
0.0981484
0.115858
0.134966
0.154273
0.172893
0.187093
0.191619
0.188866
0.000701271
-1.33059e-05
0.00162326
0.00122479
0.00153826
0.00152472
0.00155424
0.00156353
0.00157342
0.0015828
0.00158367
0.00158169
0.00157822
0.00157548
0.001573
0.00157012
0.00156875
0.00156723
0.00156521
0.0015644
0.00156241
0.00156035
0.00155753
0.00155483
0.00155229
0.00154948
0.00154536
0.0015444
0.00154449
0.0015433
0.001541
0.00153951
0.00153967
0.00154265
0.00154577
0.00154897
0.00155303
0.00155808
0.00156412
0.00157135
0.00158042
0.00159173
0.00160626
0.00162471
0.00164806
0.00167767
0.00171486
0.00176262
0.00182364
0.00189963
0.00199202
0.00210499
0.00224399
0.0024209
0.00264206
0.00291683
0.00325796
0.00368317
0.00421192
0.00486653
0.0056804
0.00669334
0.00795402
0.00952061
0.0114662
0.0138803
0.0168681
0.0205619
0.0251038
0.0306854
0.0375034
0.0457773
0.0557523
0.0676489
0.0816408
0.0977712
0.115886
0.135489
0.155321
0.174588
0.187966
0.195249
0.191012
-0.00010564
0.000742039
0.00193993
0.00151143
0.00185741
0.00188389
0.00193528
0.0019683
0.00199422
0.00201427
0.00202351
0.00202677
0.00202752
0.00202894
0.00202924
0.00202853
0.00202871
0.00202823
0.00202704
0.00202676
0.00202538
0.00202375
0.00202118
0.00201871
0.00201636
0.00201378
0.00201046
0.00200967
0.00200951
0.00200797
0.00200561
0.00200435
0.00200465
0.00200741
0.00201053
0.00201382
0.00201777
0.00202275
0.00202883
0.00203603
0.00204493
0.0020562
0.00207076
0.00208913
0.00211246
0.00214201
0.00217916
0.00222692
0.00228782
0.00236346
0.00245548
0.00256835
0.00270747
0.00288389
0.00310445
0.00337853
0.00371898
0.00414334
0.00467077
0.00532421
0.0061367
0.00714821
0.00840731
0.00997199
0.0119159
0.014328
0.0173149
0.0210113
0.0255604
0.0311535
0.0379945
0.0463079
0.0563484
0.0683517
0.0825114
0.0988975
0.117374