/*--------------------------------*- C++ -*----------------------------------*\
| =========                 |                                                 |
| \\      /  F ield         | OpenFOAM: The Open Source CFD Toolbox           |
|  \\    /   O peration     | Version:  v1906                                 |
|   \\  /    A nd           | Web:      www.OpenFOAM.com                      |
|    \\/     M anipulation  |                                                 |
\*---------------------------------------------------------------------------*/
FoamFile
{
    version     2.0;
    format      ascii;
    class       volScalarField;
    location    "0.00022";
    object      p;
}
// * * * * * * * * * * * * * * * * * * * * * * * * * * * * * * * * * * * * * //

dimensions      [0 2 -2 0 0 0 0];


internalField   nonuniform List<scalar> 
243374
(
-0.0392699
-0.0437994
-0.0444994
-0.0445749
-0.0447004
-0.0447453
-0.0447835
-0.0448319
-0.0449073
-0.0450134
-0.045148
-0.0453011
-0.0454638
-0.0456303
-0.0457979
-0.0459592
-0.0461045
-0.0462283
-0.0463223
-0.0463774
-0.046382
-0.0463275
-0.0462103
-0.0460316
-0.0457789
-0.0454063
-0.0448808
-0.0441793
-0.0432438
-0.0420058
-0.040433
-0.0384749
-0.0360005
-0.0328386
-0.028809
-0.0237129
-0.0173149
-0.00928539
0.000789513
0.0133917
0.0291467
0.048868
0.0735076
0.104245
0.142561
0.190312
0.24992
0.32411
0.416501
0.531782
0.675526
0.854227
1.07642
1.35271
1.69743
2.12683
2.66674
3.33415
4.16409
5.19648
6.47993
8.07437
10.0534
12.507
15.5447
19.2985
23.9263
29.6144
36.5785
45.062
55.33
67.6545
82.2891
99.4254
119.13
141.263
165.361
190.425
214.148
238.046
-0.0416147
-0.0434054
-0.0440188
-0.0440966
-0.0442214
-0.0442618
-0.0442943
-0.0443376
-0.0444099
-0.0445151
-0.0446499
-0.0448025
-0.0449638
-0.0451294
-0.0452976
-0.0454601
-0.0456059
-0.0457287
-0.0458214
-0.0458758
-0.0458799
-0.0458241
-0.0457034
-0.0455192
-0.0452598
-0.04488
-0.0443483
-0.0436422
-0.0426987
-0.0414453
-0.0398539
-0.0378762
-0.0353793
-0.032189
-0.0281206
-0.0229711
-0.0165094
-0.00840992
0.00175075
0.0144683
0.0303699
0.0502756
0.0751369
0.10616
0.144833
0.193028
0.253195
0.328069
0.42136
0.537789
0.682886
0.863511
1.08823
1.36812
1.71916
2.15336
2.6932
3.36647
4.20449
5.2469
6.54283
8.15285
10.1513
12.629
15.6966
19.4872
24.16
29.9024
36.9312
45.4902
55.8434
68.2603
82.9879
100.206
119.966
142.104
166.135
191.084
215
238.502
-0.0431906
-0.0439768
-0.0446188
-0.044677
-0.0448033
-0.0448434
-0.0448746
-0.0449159
-0.0449872
-0.045093
-0.0452285
-0.0453813
-0.0455413
-0.0457062
-0.0458748
-0.0460386
-0.0461848
-0.0463066
-0.0463978
-0.0464516
-0.0464558
-0.0463998
-0.0462769
-0.0460875
-0.0458211
-0.0454345
-0.0448982
-0.0441884
-0.0432386
-0.0419742
-0.0403685
-0.0383732
-0.0358563
-0.0326426
-0.028543
-0.0233493
-0.016833
-0.00867659
0.00155079
0.0143635
0.0303861
0.0504423
0.0754816
0.106737
0.1457
0.194266
0.254881
0.330282
0.424275
0.54154
0.687574
0.869463
1.09532
1.37635
1.72853
2.16844
2.71352
3.39297
4.2382
5.28945
6.59636
8.22006
10.2356
12.7346
15.8286
19.6519
24.3651
30.1568
37.2449
45.8744
56.3092
68.8175
83.6426
100.957
120.799
142.989
167.019
191.905
215.95
238.512
-0.0443112
-0.0433653
-0.0435227
-0.0440469
-0.0440936
-0.0442157
-0.0442532
-0.0442817
-0.0443206
-0.0443903
-0.0444958
-0.0446312
-0.0447828
-0.0449411
-0.0451052
-0.0452739
-0.0454385
-0.0455849
-0.0457054
-0.0457949
-0.045848
-0.0458525
-0.0457965
-0.0456716
-0.0454771
-0.0452036
-0.04481
-0.0442689
-0.0435551
-0.042599
-0.0413239
-0.0397037
-0.0376903
-0.0351528
-0.0319152
-0.0277838
-0.0225452
-0.0159723
-0.00775698
0.00253737
0.0154466
0.0315919
0.0518025
0.0770217
0.108518
0.147788
0.196733
0.257826
0.333763
0.42851
0.54669
0.693986
0.877855
1.10564
1.39086
1.74344
2.18564
2.7351
3.41952
4.27117
5.33057
6.64777
8.28445
10.3163
12.8357
15.9553
19.8105
24.5632
30.4038
37.5515
46.2528
56.7727
69.379
84.313
101.742
121.696
143.982
168.072
192.978
217.105
238.659
251.788
-0.044709
-0.0441633
-0.0440663
-0.0446015
-0.0446271
-0.044747
-0.0447818
-0.044808
-0.0448448
-0.0449131
-0.0450178
-0.0451525
-0.0453036
-0.0454607
-0.0456237
-0.0457925
-0.0459576
-0.0461041
-0.0462237
-0.0463121
-0.0463647
-0.0463697
-0.0463142
-0.046188
-0.045989
-0.0457091
-0.0453095
-0.0447645
-0.0440476
-0.0430867
-0.0418034
-0.0401709
-0.0381422
-0.0355876
-0.032331
-0.0281742
-0.0228992
-0.0162809
-0.00801349
0.00234487
0.0153325
0.0315776
0.051915
0.0772752
0.10897
0.148496
0.197735
0.259213
0.335527
0.430833
0.549619
0.697425
0.882142
1.11258
1.3993
1.75517
2.19996
2.75336
3.4425
4.30007
5.36694
6.69355
8.34207
10.3888
12.9271
16.0703
19.9553
24.7454
30.6325
37.8379
46.6098
57.2153
69.9234
84.9752
102.536
122.63
145.055
169.27
194.274
218.48
239.996
253.512
261.847
-0.0447269
-0.0440945
-0.0437956
-0.044251
-0.0442624
-0.044378
-0.0444117
-0.0444372
-0.0444734
-0.0445413
-0.044646
-0.0447798
-0.0449291
-0.045085
-0.0452472
-0.0454159
-0.0455813
-0.0457277
-0.0458462
-0.0459335
-0.0459856
-0.045991
-0.0459362
-0.0458091
-0.0456061
-0.0453203
-0.0449151
-0.0443662
-0.0436457
-0.0426804
-0.0413897
-0.0397454
-0.0377022
-0.0351317
-0.0318567
-0.0276755
-0.0223657
-0.0157038
-0.00738587
0.00303251
0.0160939
0.0324328
0.0528921
0.0783889
0.110278
0.15006
0.199579
0.26145
0.33829
0.434188
0.553832
0.702887
0.887942
1.11937
1.40753
1.76588
2.21299
2.76968
3.46289
4.32564
5.39908
6.73403
8.39314
10.4533
13.0086
16.1734
20.0858
24.9106
30.8415
38.1021
46.9431
57.6342
70.447
85.6248
103.334
123.596
146.203
170.607
195.793
220.158
241.692
255.385
263.917
-0.0447811
-0.0444318
-0.0440365
-0.0444774
-0.0444733
-0.044585
-0.0446163
-0.0446403
-0.0446753
-0.0447424
-0.0448462
-0.0449787
-0.0451269
-0.0452816
-0.0454431
-0.0456116
-0.0457772
-0.0459235
-0.0460412
-0.0461275
-0.0461792
-0.0461853
-0.0461314
-0.0460038
-0.0457975
-0.045507
-0.0450974
-0.0445454
-0.0438222
-0.0428538
-0.0415582
-0.0399052
-0.0378507
-0.035268
-0.0319794
-0.0277795
-0.0224431
-0.0157482
-0.0073932
0.00306935
0.0161866
0.0325936
0.0531395
0.0787545
0.110784
0.150753
0.200426
0.262483
0.3399
0.436308
0.556486
0.706113
0.89239
1.12484
1.41438
1.77474
2.22398
2.78352
3.48029
4.34757
5.42678
6.76909
8.4376
10.5097
13.0803
16.2648
20.2024
25.0595
31.032
38.3459
47.255
58.0325
70.9543
86.2677
104.142
124.603
147.44
172.099
197.555
222.17
243.893
257.679
266.375
-0.0448531
-0.0445571
-0.0440889
-0.0445008
-0.0444845
-0.0445919
-0.0446219
-0.0446454
-0.0446804
-0.0447473
-0.0448502
-0.0449812
-0.045128
-0.0452817
-0.0454426
-0.0456107
-0.0457762
-0.0459224
-0.0460395
-0.046125
-0.0461764
-0.046183
-0.0461301
-0.0460024
-0.0457936
-0.0454991
-0.045086
-0.0445311
-0.0438053
-0.0428345
-0.0415354
-0.0398755
-0.0378114
-0.0352186
-0.0319182
-0.027702
-0.0223429
-0.0156206
-0.00723474
0.00326377
0.0164298
0.0328972
0.0535192
0.0792321
0.111384
0.151502
0.201371
0.263673
0.341355
0.438122
0.558738
0.708922
0.896027
1.12932
1.41997
1.78192
2.23294
2.79482
3.49456
4.36563
5.44968
6.7982
8.47474
10.5571
13.141
16.3428
20.3029
25.1894
31.2004
38.5645
47.5394
58.4026
71.4357
86.8922
104.949
125.635
148.745
173.722
199.525
224.483
246.538
260.441
269.312
-0.0449488
-0.0444653
-0.0439496
-0.044319
-0.0442953
-0.0443985
-0.0444285
-0.0444529
-0.0444888
-0.044556
-0.0446582
-0.0447876
-0.0449327
-0.0450855
-0.0452459
-0.0454136
-0.0455788
-0.0457248
-0.0458415
-0.0459264
-0.0459775
-0.0459847
-0.0459329
-0.0458056
-0.0455951
-0.0452979
-0.0448822
-0.044325
-0.0435969
-0.0426248
-0.041324
-0.0396597
-0.0375888
-0.0349886
-0.0316796
-0.0274512
-0.0220756
-0.015334
-0.00692659
0.00359523
0.0167981
0.0333113
0.0539892
0.0797662
0.112002
0.152211
0.202257
0.264728
0.342589
0.439633
0.560588
0.711253
0.898877
1.13283
1.42435
1.78749
2.23996
2.80369
3.50578
4.3799
5.46789
6.82151
8.50476
10.5958
13.1911
16.4079
20.388
25.301
31.3476
38.7594
47.7984
58.7476
71.8954
87.5042
105.76
126.703
150.134
175.495
201.734
227.142
249.688
263.713
272.7
-0.0450547
-0.044867
-0.0443302
-0.0447164
-0.0446821
-0.0447812
-0.0448098
-0.044834
-0.0448704
-0.0449375
-0.0450381
-0.0451655
-0.0453096
-0.0454617
-0.0456215
-0.0457885
-0.0459533
-0.0460991
-0.0462157
-0.0463001
-0.0463509
-0.0463585
-0.0463078
-0.046181
-0.0459695
-0.0456707
-0.0452532
-0.0446942
-0.0439639
-0.0429908
-0.0416899
-0.0400232
-0.0379474
-0.0353419
-0.0320264
-0.0277886
-0.0224011
-0.0156466
-0.00722447
0.00331111
0.0165428
0.0330894
0.0538046
0.0796489
0.111946
0.15222
0.202393
0.264979
0.342961
0.44019
0.561371
0.712341
0.900354
1.13477
1.42689
1.79081
2.24448
2.80957
3.51338
4.38974
5.48069
6.83817
8.52667
10.6245
13.2291
16.4583
20.4554
25.3915
31.4702
38.926
48.026
59.0592
72.3227
88.0897
106.559
127.784
151.577
177.386
204.144
230.097
253.312
267.412
276.374
-0.0450883
-0.0444563
-0.0438902
-0.0442018
-0.0441675
-0.0442622
-0.0442915
-0.0443176
-0.0443558
-0.044424
-0.0445238
-0.0446493
-0.0447911
-0.0449424
-0.0451019
-0.0452682
-0.0454322
-0.0455778
-0.0456944
-0.0457785
-0.045829
-0.045837
-0.0457875
-0.0456619
-0.0454503
-0.045151
-0.0447329
-0.0441725
-0.0434403
-0.0424672
-0.0411679
-0.0395012
-0.0374233
-0.0348154
-0.0314965
-0.0272538
-0.0218614
-0.0151021
-0.00667369
0.00386316
0.0171081
0.0336688
0.0543973
0.0802783
0.112601
0.152898
0.203127
0.265748
0.343799
0.441114
0.562399
0.713525
0.90174
1.1364
1.42884
1.79322
2.24751
2.81338
3.5182
4.39599
5.48886
6.84893
8.54127
10.6443
13.2559
16.4951
20.5062
25.462
31.5691
39.0653
48.2232
59.3389
72.7192
88.6504
107.348
128.882
153.082
179.404
206.772
233.361
257.43
271.498
280.039
-0.0449341
-0.0449938
-0.0444503
-0.0448131
-0.0447691
-0.0448619
-0.0448921
-0.0449203
-0.0449607
-0.0450301
-0.0451287
-0.0452518
-0.0453922
-0.0455433
-0.0457022
-0.0458676
-0.0460306
-0.0461759
-0.0462927
-0.046377
-0.0464274
-0.0464357
-0.0463874
-0.0462632
-0.0460523
-0.0457535
-0.0453357
-0.0447745
-0.0440405
-0.0430679
-0.0417718
-0.0401068
-0.0380288
-0.0354205
-0.0321006
-0.0278569
-0.0224657
-0.0157098
-0.00728486
0.00326245
0.0165097
0.0330711
0.0537963
0.079688
0.112012
0.152303
0.20254
0.26514
0.343195
0.440511
0.561796
0.712949
0.901196
1.13588
1.42838
1.79287
2.24732
2.81345
3.5186
4.397
5.49075
6.85198
8.54661
10.6532
13.2697
16.5162
20.5382
25.5102
31.6418
39.1743
48.3863
59.5816
73.0782
89.1777
108.115
129.983
154.631
181.528
209.596
236.88
262.878
275.699
-0.0442917
-0.0439657
-0.0442414
-0.0442026
-0.0442899
-0.0443195
-0.0443487
-0.0443909
-0.0444609
-0.0445577
-0.0446778
-0.0448156
-0.0449661
-0.0451245
-0.0452886
-0.0454504
-0.0455952
-0.0457122
-0.0457968
-0.0458471
-0.0458555
-0.0458084
-0.0456861
-0.0454767
-0.0451793
-0.0447627
-0.0442011
-0.0434656
-0.042494
-0.0412024
-0.0395412
-0.0374652
-0.0348584
-0.0315398
-0.027299
-0.0219145
-0.0151679
-0.00675248
0.00379517
0.0170329
0.0335812
0.0542859
0.0801618
0.11246
0.152715
0.202916
0.265441
0.343433
0.440669
0.561849
0.712886
0.901065
1.1356
1.42792
1.79221
2.24648
2.81243
3.51732
4.39567
5.48943
6.85055
8.54675
10.6548
13.2738
16.5245
20.5535
25.5375
31.6883
39.2514
48.5116
59.7801
73.3873
89.6511
108.828
131.043
156.167
183.69
212.513
240.408
267.864
-0.044843
-0.0444058
-0.0447447
-0.0446932
-0.0447788
-0.0448118
-0.0448456
-0.0448921
-0.0449645
-0.0450611
-0.0451794
-0.0453159
-0.0454661
-0.045624
-0.045787
-0.0459475
-0.0460919
-0.0462096
-0.0462946
-0.0463448
-0.0463532
-0.0463073
-0.0461871
-0.0459799
-0.045685
-0.0452703
-0.0447091
-0.0439724
-0.0430026
-0.0417172
-0.0400624
-0.0379909
-0.0353875
-0.0320729
-0.0278396
-0.0224686
-0.0157384
-0.00734002
0.00319459
0.0164099
0.0329293
0.0535931
0.0794237
0.111662
0.15184
0.201945
0.264344
0.342209
0.439266
0.560214
0.710973
0.89889
1.13303
1.42483
1.78848
2.24206
2.80715
3.5108
4.38803
5.48026
6.83841
8.53614
10.6439
13.2636
16.517
20.5515
25.5463
31.7111
39.3004
48.6067
59.9493
73.6735
90.1202
109.576
132.176
157.838
186.081
215.791
244.438
272.908
-0.0443162
-0.0441165
-0.0446065
-0.0446259
-0.0447267
-0.044775
-0.0448313
-0.0449012
-0.0449876
-0.0450925
-0.0452221
-0.0453754
-0.0455441
-0.0457147
-0.0458789
-0.0460318
-0.0461724
-0.0462995
-0.0464003
-0.0464602
-0.0464691
-0.0464244
-0.0463267
-0.0461771
-0.0459597
-0.0456254
-0.045132
-0.0444568
-0.0435676
-0.0424156
-0.0409523
-0.0391061
-0.0367534
-0.0337449
-0.0299239
-0.0251118
-0.019051
-0.0114023
-0.00180617
0.0101656
0.0251136
0.0438472
0.0672756
0.0964793
0.132851
0.178218
0.234865
0.305355
0.393039
0.502325
0.638013
0.807691
1.01773
1.28307
1.61202
2.0202
2.52825
3.16078
3.94786
4.92679
6.14366
7.65532
9.53175
11.8586
14.7405
18.3044
22.7028
28.1179
34.7634
42.8858
52.762
64.6905
78.9734
95.8829
115.603
138.145
163.219
189.993
216.754
242.762
-0.0443568
-0.0434601
-0.0435643
-0.0439993
-0.0440383
-0.0441367
-0.0441779
-0.0442234
-0.0442831
-0.0443617
-0.0444617
-0.044588
-0.0447383
-0.0449039
-0.0450722
-0.0452362
-0.0453899
-0.0455312
-0.0456578
-0.0457574
-0.0458158
-0.0458226
-0.0457744
-0.0456715
-0.0455158
-0.0452917
-0.0449494
-0.0444475
-0.0437642
-0.0428625
-0.0416892
-0.040199
-0.0383265
-0.0359449
-0.0328987
-0.0290272
-0.0241492
-0.0180104
-0.0102688
-0.000553736
0.011569
0.0267128
0.0456873
0.0694197
0.0990112
0.135888
0.181886
0.239333
0.310846
0.399856
0.511068
0.648989
0.82114
1.03575
1.30191
1.63469
2.04853
2.56366
3.20492
4.00282
4.99522
6.22881
7.7612
9.66326
12.0217
14.9422
18.5529
23.0076
28.4891
35.2111
43.4188
53.3851
65.4003
79.7521
96.6896
116.363
138.74
163.482
189.764
215.951
240.331
255.411
-0.044445
-0.0438519
-0.0440154
-0.0446163
-0.044656
-0.0447675
-0.0448146
-0.0448633
-0.0449242
-0.0450056
-0.045111
-0.0452428
-0.0453959
-0.0455622
-0.0457313
-0.0458968
-0.046053
-0.0461956
-0.0463216
-0.0464195
-0.0464766
-0.0464823
-0.0464316
-0.0463242
-0.0461618
-0.0459294
-0.0455781
-0.045069
-0.0443796
-0.0434671
-0.0422738
-0.0407563
-0.0388562
-0.0364454
-0.0333628
-0.0294424
-0.024498
-0.0182804
-0.0104495
-0.000621281
0.0116504
0.0269834
0.0461842
0.0701918
0.100124
0.13743
0.183946
0.242013
0.314279
0.404178
0.516131
0.65667
0.83084
1.04788
1.31734
1.65419
2.07302
2.5947
3.2438
4.05144
5.05595
6.30461
7.85571
9.78094
12.1679
15.1235
18.7769
23.2829
28.8253
35.6181
43.9055
53.9573
66.0574
80.4816
97.4598
117.114
139.376
163.868
189.747
215.426
238.926
253.803
263.09
-0.044617
-0.0425523
-0.0432947
-0.0438476
-0.0439153
-0.0440275
-0.0440682
-0.0441062
-0.0441565
-0.0442308
-0.0443323
-0.0444619
-0.044613
-0.0447765
-0.0449437
-0.0451094
-0.0452671
-0.0454107
-0.0455356
-0.0456316
-0.0456877
-0.0456926
-0.04564
-0.0455284
-0.0453593
-0.0451188
-0.0447588
-0.0442428
-0.0435484
-0.0426263
-0.0414142
-0.0398731
-0.037949
-0.0355123
-0.0323972
-0.0284321
-0.0234259
-0.017135
-0.00922192
0.000709635
0.0131189
0.0286277
0.0480444
0.0723168
0.102585
0.140316
0.187357
0.24608
0.319176
0.410157
0.523621
0.66554
0.84168
1.06081
1.33337
1.67383
2.09693
2.6253
3.28175
4.09863
5.11471
6.3778
7.94685
9.89433
12.3088
15.2982
18.9928
23.5487
29.1505
36.0129
44.3791
54.5168
66.7043
81.2072
98.238
117.894
140.076
164.369
189.889
214.932
237.68
252.301
260.808
-0.0442943
-0.0424131
-0.0437723
-0.0444527
-0.0445209
-0.0446429
-0.0446902
-0.0447312
-0.0447825
-0.0448593
-0.0449653
-0.0450992
-0.0452516
-0.0454141
-0.0455803
-0.0457473
-0.0459076
-0.0460525
-0.0461767
-0.0462713
-0.0463267
-0.0463312
-0.0462772
-0.0461616
-0.045986
-0.0457376
-0.0453692
-0.044847
-0.0441487
-0.0432181
-0.0419883
-0.0404257
-0.03848
-0.0360196
-0.0328746
-0.0288677
-0.0238026
-0.0174424
-0.00945417
0.000570891
0.0131055
0.0287742
0.0483892
0.0729017
0.103477
0.141593
0.189095
0.2484
0.322224
0.414143
0.528865
0.672
0.849856
1.07108
1.34624
1.68993
2.11603
2.65187
3.31489
4.14007
5.16658
6.44272
8.02806
9.9958
12.4354
15.4557
19.1882
23.7901
29.4471
36.3742
44.8146
55.0344
67.3075
81.8906
98.9823
118.659
140.794
164.945
190.231
215.38
236.96
250.487
260.828
-0.0441593
-0.0422655
-0.0431804
-0.0437123
-0.0438136
-0.0439435
-0.0439868
-0.04402
-0.0440642
-0.0441365
-0.0442403
-0.0443726
-0.0445229
-0.0446831
-0.044848
-0.0450155
-0.0451774
-0.0453228
-0.0454456
-0.0455382
-0.0455928
-0.0455973
-0.0455425
-0.0454234
-0.0452413
-0.0449847
-0.0446079
-0.04408
-0.0433781
-0.0424401
-0.0411946
-0.0396133
-0.0376469
-0.0351633
-0.0319904
-0.0279451
-0.0228252
-0.016399
-0.00834006
0.0017699
0.0144212
0.0302394
0.0500416
0.0747804
0.10565
0.144135
0.192073
0.251949
0.326486
0.419337
0.535224
0.679613
0.85928
1.08298
1.36125
1.70907
2.14075
2.6798
3.35011
4.18407
5.22133
6.51079
8.11274
10.1012
12.5665
15.6188
19.3907
24.0408
29.7558
36.752
45.2728
55.5827
67.952
82.63
99.8013
119.524
141.644
165.692
190.774
215.696
237.823
251.443
260.433
-0.0441197
-0.0434541
-0.0438639
-0.0444075
-0.0444841
-0.0446089
-0.0446572
-0.0446941
-0.0447387
-0.0448134
-0.0449209
-0.0450567
-0.0452074
-0.0453661
-0.04553
-0.0456982
-0.0458616
-0.0460076
-0.046129
-0.0462197
-0.0462735
-0.046278
-0.0462226
-0.0461004
-0.0459124
-0.0456479
-0.0452632
-0.0447297
-0.0440238
-0.0430785
-0.0418197
-0.0402218
-0.0382351
-0.0357286
-0.0325287
-0.0284473
-0.0232763
-0.0167869
-0.00866293
0.00152195
0.0142825
0.030239
0.0502146
0.0751583
0.106295
0.145101
0.193481
0.253867
0.329011
0.422673
0.539566
0.684948
0.866067
1.09153
1.37257
1.72301
2.15941
2.70272
3.37905
4.22051
5.26715
6.56836
8.18503
10.1919
12.6802
15.7609
19.5681
24.2616
30.0294
37.0892
45.6852
56.0815
68.5466
83.3252
100.593
120.393
142.556
166.584
191.564
216.172
238.123
252.11
260.46
-0.0442167
-0.0428576
-0.0433804
-0.0437646
-0.043875
-0.0440041
-0.0440563
-0.0440926
-0.0441366
-0.0442104
-0.0443178
-0.0444526
-0.0445983
-0.0447556
-0.0449188
-0.0450872
-0.0452512
-0.0453971
-0.045517
-0.0456054
-0.0456583
-0.045663
-0.0456075
-0.0454832
-0.0452899
-0.0450181
-0.0446263
-0.0440879
-0.0433785
-0.0424271
-0.0411573
-0.0395452
-0.0375407
-0.0350138
-0.0317902
-0.0276769
-0.0224595
-0.0159101
-0.00773469
0.00249586
0.0153496
0.0314234
0.051548
0.0766623
0.108028
0.14713
0.195882
0.256735
0.332383
0.426764
0.544468
0.691168
0.873803
1.1009
1.38446
1.73702
2.17687
2.72436
3.40604
4.25427
5.30942
6.62133
8.25143
10.2751
12.7845
15.8917
19.7318
24.4661
30.2842
37.4052
46.075
56.5583
69.1232
84.012
101.395
121.304
143.556
167.636
192.608
217.077
239.139
254.7
261.223
-0.0442346
-0.0436646
-0.0439121
-0.0442892
-0.0443815
-0.0445067
-0.0445537
-0.0445876
-0.0446303
-0.0447043
-0.0448125
-0.0449483
-0.0450969
-0.0452527
-0.0454147
-0.0455832
-0.0457482
-0.0458943
-0.0460134
-0.0461009
-0.0461533
-0.0461584
-0.0461033
-0.0459774
-0.0457792
-0.0455007
-0.0451026
-0.0445598
-0.0438465
-0.0428898
-0.0416108
-0.0399846
-0.0379633
-0.0354179
-0.0321735
-0.0280329
-0.0227768
-0.0161806
-0.00794168
0.00237779
0.0153197
0.0315064
0.0517773
0.0770449
0.10863
0.14802
0.197108
0.258439
0.334432
0.429437
0.54786
0.695453
0.879423
1.10841
1.39396
1.74903
2.1919
2.74325
3.42974
4.28405
5.34688
6.6685
8.31086
10.35
12.8789
16.0106
19.8815
24.6544
30.5207
37.7013
46.444
57.0154
69.6848
84.694
102.21
122.261
144.65
168.851
193.909
218.391
240.513
256.067
262.621
-0.0444906
-0.043368
-0.0436422
-0.043932
-0.0440296
-0.0441553
-0.0442093
-0.0442475
-0.0442867
-0.0443595
-0.0444669
-0.0445998
-0.0447456
-0.0449004
-0.0450617
-0.04523
-0.0453952
-0.0455412
-0.0456592
-0.0457457
-0.0457976
-0.0458033
-0.0457489
-0.0456223
-0.0454201
-0.0451359
-0.0447323
-0.0441857
-0.0434691
-0.0425082
-0.0412221
-0.0395841
-0.0375488
-0.0349883
-0.0317266
-0.0275627
-0.0222731
-0.0156348
-0.00734624
0.00303271
0.0160449
0.0323218
0.0527165
0.0780732
0.109837
0.149467
0.198781
0.260396
0.336991
0.432568
0.551771
0.70011
0.88501
1.11541
1.40256
1.75987
2.20534
2.7601
3.45088
4.31061
5.38032
6.71064
8.36402
10.4171
12.9637
16.1178
20.0172
24.8261
30.7379
37.9758
46.79
57.45
70.2278
85.3672
103.035
123.259
145.835
170.227
195.465
220.096
242.365
257.998
264.569
-0.0445725
-0.0437016
-0.04387
-0.0441372
-0.0442215
-0.044344
-0.0443947
-0.0444278
-0.0444683
-0.0445416
-0.0446493
-0.0447821
-0.0449277
-0.0450813
-0.0452416
-0.0454098
-0.0455752
-0.0457211
-0.0458384
-0.045924
-0.0459754
-0.0459815
-0.045928
-0.0458008
-0.0455951
-0.0453059
-0.0448977
-0.0443476
-0.0436277
-0.0426633
-0.0413716
-0.0397238
-0.0376764
-0.0351025
-0.0318256
-0.0276411
-0.0223224
-0.0156483
-0.00731942
0.00311076
0.0161854
0.0325351
0.0530191
0.0785523
0.110477
0.150363
0.19978
0.261644
0.338735
0.434796
0.554561
0.703601
0.889453
1.12103
1.40959
1.76885
2.21655
2.77424
3.4687
4.33311
5.40876
6.74666
8.40972
10.4751
13.0375
16.2119
20.1372
24.9794
30.9341
38.2268
47.111
57.8601
70.7501
86.0293
103.869
124.296
147.11
171.764
197.279
222.186
244.711
260.49
267.074
-0.0446291
-0.0438114
-0.0439194
-0.0441595
-0.0442325
-0.0443508
-0.0444002
-0.0444329
-0.0444735
-0.0445466
-0.0446534
-0.0447847
-0.0449288
-0.0450814
-0.0452412
-0.045409
-0.0455743
-0.04572
-0.0458368
-0.0459215
-0.0459726
-0.0459792
-0.0459267
-0.0457994
-0.0455912
-0.0452981
-0.0448863
-0.0443333
-0.0436106
-0.0426438
-0.0413487
-0.0396938
-0.0376368
-0.0350528
-0.0317641
-0.027563
-0.0222215
-0.0155198
-0.00716024
0.00330648
0.0164304
0.0328406
0.0534008
0.0790314
0.111076
0.151103
0.200723
0.262813
0.340214
0.436652
0.556859
0.706451
0.893146
1.12567
1.41538
1.77623
2.22574
2.78584
3.48336
4.35168
5.43233
6.77665
8.448
10.524
13.1001
16.2924
20.2409
25.1135
31.1079
38.4527
47.4051
58.243
71.2485
86.6764
104.705
125.369
148.468
173.457
199.347
224.655
247.555
263.54
270.157
-0.0446614
-0.04371
-0.0437933
-0.0439999
-0.0440629
-0.0441762
-0.0442264
-0.0442635
-0.0443024
-0.0443745
-0.0444792
-0.0446077
-0.044749
-0.0449008
-0.0450602
-0.0452274
-0.0453923
-0.0455379
-0.0456542
-0.0457383
-0.045789
-0.0457961
-0.0457446
-0.0456176
-0.0454076
-0.0451118
-0.0446974
-0.0441418
-0.0434165
-0.0424479
-0.0411508
-0.0394913
-0.0374267
-0.0348346
-0.0315362
-0.0273214
-0.0219615
-0.0152386
-0.00685489
0.00363683
0.0168009
0.0332646
0.0538939
0.0795515
0.111681
0.151762
0.201645
0.263923
0.341535
0.438276
0.558866
0.709132
0.896099
1.12933
1.41997
1.78213
2.23295
2.79495
3.49492
4.36639
5.45111
6.80071
8.47897
10.5639
13.1517
16.3595
20.3287
25.2287
31.2599
38.654
47.6729
58.5999
71.7247
87.3111
105.548
126.48
149.917
175.317
201.682
227.512
250.905
267.161
273.812
-0.0445207
-0.0442658
-0.0441622
-0.0443995
-0.0444355
-0.0445408
-0.0445818
-0.0446139
-0.0446562
-0.0447292
-0.044833
-0.0449613
-0.0451028
-0.0452536
-0.0454125
-0.0455791
-0.0457436
-0.0458891
-0.0460054
-0.0460889
-0.0461394
-0.0461469
-0.0460964
-0.04597
-0.0457592
-0.0454618
-0.0450459
-0.0444885
-0.0437612
-0.0427919
-0.041495
-0.0398338
-0.0377648
-0.035168
-0.0318636
-0.0276398
-0.0222692
-0.0155352
-0.00713842
0.00336115
0.0165517
0.0330447
0.0536996
0.0794567
0.11165
0.151791
0.201818
0.264227
0.341917
0.438828
0.559619
0.710118
0.897521
1.13119
1.42239
1.7851
2.23764
2.80107
3.5028
4.37661
5.4644
6.81804
8.50175
10.5936
13.1911
16.4118
20.3987
25.3229
31.3877
38.828
47.9109
58.9266
72.1735
87.9274
106.392
127.624
151.45
177.334
204.274
230.756
254.753
271.379
278.047
-0.0446149
-0.0437811
-0.0437323
-0.0439161
-0.043949
-0.0440512
-0.0440953
-0.0441291
-0.0441725
-0.0442447
-0.0443462
-0.0444706
-0.0446065
-0.0447567
-0.0449154
-0.0450811
-0.0452445
-0.0453895
-0.0455056
-0.0455885
-0.0456387
-0.0456464
-0.0455971
-0.0454718
-0.045261
-0.0449631
-0.0445465
-0.0439875
-0.0432578
-0.0422882
-0.0409929
-0.0393317
-0.0372604
-0.0346605
-0.0313515
-0.0271211
-0.0217434
-0.015001
-0.0065906
0.00388407
0.0170896
0.0335973
0.0542629
0.080065
0.112289
0.152456
0.202541
0.264981
0.342794
0.439814
0.560737
0.711421
0.899078
1.13304
1.42465
1.78797
2.24104
2.8053
3.50815
4.38351
5.47344
6.83001
8.51793
10.6149
13.2198
16.4509
20.4526
25.3975
31.4924
38.9754
48.1197
59.2231
72.5945
88.5244
107.234
128.799
153.066
179.506
207.123
234.404
259.09
276.044
282.922
-0.0444362
-0.0448252
-0.0443122
-0.0445962
-0.0445761
-0.0446682
-0.0447069
-0.0447408
-0.0447846
-0.0448572
-0.0449572
-0.04508
-0.0452182
-0.0453679
-0.0455259
-0.0456906
-0.0458532
-0.0459982
-0.0461149
-0.0461986
-0.0462488
-0.0462569
-0.0462089
-0.0460853
-0.0458753
-0.0455781
-0.045162
-0.0446023
-0.0438704
-0.042901
-0.0416092
-0.0399499
-0.0378782
-0.0352776
-0.0319673
-0.027736
-0.0223606
-0.0156243
-0.00722308
0.0032931
0.0165037
0.0330176
0.0536844
0.0795051
0.11174
0.151913
0.202017
0.264445
0.342284
0.43933
0.560283
0.711063
0.898713
1.13274
1.42444
1.78794
2.24117
2.80578
3.5091
4.38515
5.47611
6.83405
8.52374
10.6257
13.2361
16.4754
20.4892
25.4518
31.5741
39.0969
48.3001
59.4904
72.9894
89.1042
108.078
130.008
154.768
181.839
210.235
238.452
263.7
278.916
288.45
-0.0444505
-0.0440711
-0.0437219
-0.0439319
-0.0439214
-0.0440142
-0.0440467
-0.0440764
-0.0441194
-0.0441892
-0.0442841
-0.0444011
-0.0445361
-0.0446853
-0.0448427
-0.0450058
-0.0451667
-0.0453111
-0.0454283
-0.0455126
-0.0455626
-0.0455709
-0.0455243
-0.045403
-0.0451948
-0.0448994
-0.0444845
-0.0439243
-0.0431899
-0.0422212
-0.0409343
-0.0392789
-0.0372089
-0.0346088
-0.0312983
-0.0270689
-0.0217001
-0.0149726
-0.00657966
0.00394411
0.0171483
0.0336541
0.054305
0.0801159
0.112334
0.152486
0.202572
0.264924
0.342694
0.439679
0.560547
0.711213
0.898932
1.13289
1.42451
1.78794
2.24116
2.80585
3.50921
4.38561
5.47715
6.83609
8.5274
10.6314
13.2453
16.4904
20.513
25.4896
31.6375
39.1978
48.4586
59.7367
73.368
89.6795
108.941
131.269
156.577
184.344
213.605
242.927
268.857
284.144
294.68
-0.044585
-0.0451466
-0.044393
-0.0446991
-0.044643
-0.0447251
-0.0447611
-0.0447985
-0.0448482
-0.0449219
-0.0450176
-0.0451338
-0.0452682
-0.0454173
-0.0455743
-0.0457358
-0.0458949
-0.0460388
-0.0461568
-0.0462419
-0.0462919
-0.0463001
-0.0462546
-0.0461358
-0.0459305
-0.0456378
-0.0452249
-0.0446643
-0.0439269
-0.0429584
-0.0416784
-0.0400299
-0.0379629
-0.0353626
-0.0320519
-0.0278268
-0.0224697
-0.0157552
-0.00737251
0.00314591
0.0163372
0.0328277
0.0534515
0.0792333
0.111411
0.151513
0.201521
0.263797
0.341528
0.438404
0.559123
0.709609
0.897232
1.13096
1.42227
1.7853
2.2382
2.8025
3.50506
4.38133
5.47277
6.83262
8.52375
10.6293
13.247
16.4987
20.5319
25.5273
31.6929
39.2892
48.6128
59.9852
73.7604
90.2915
109.883
132.674
158.61
187.23
217.507
247.78
274.329
290.218
301.242
-0.0448708
-0.0443448
-0.0438558
-0.0440963
-0.0440463
-0.0441193
-0.0441488
-0.0441822
-0.04423
-0.0443003
-0.0443906
-0.0445009
-0.0446319
-0.0447799
-0.044936
-0.0450954
-0.0452523
-0.0453954
-0.0455138
-0.0455995
-0.0456493
-0.0456575
-0.0456133
-0.0454974
-0.0452955
-0.0450067
-0.0445967
-0.0440365
-0.0432973
-0.042331
-0.0410599
-0.039421
-0.0373605
-0.0347646
-0.031459
-0.0272453
-0.0219082
-0.0152166
-0.00685644
0.00363817
0.0167965
0.0332461
0.0538119
0.0795258
0.111615
0.151605
0.201468
0.263573
0.341127
0.43775
0.558152
0.708211
0.895452
1.12862
1.41921
1.78128
2.23337
2.7967
3.49825
4.37265
5.46229
6.81989
8.50949
10.6133
13.2301
16.4817
20.5173
25.5185
31.7002
39.3242
48.6828
60.1252
74.0174
90.7282
110.588
133.787
160.297
189.694
220.947
252.186
280.304
296.348
306.896
-0.0451019
-0.0452056
-0.0445307
-0.0448632
-0.0447939
-0.0448685
-0.0449047
-0.0449482
-0.0450056
-0.0450825
-0.0451756
-0.0452865
-0.0454176
-0.0455662
-0.0457223
-0.0458806
-0.0460362
-0.046179
-0.0462982
-0.0463848
-0.0464348
-0.0464433
-0.0464007
-0.046288
-0.0460897
-0.0458054
-0.0453989
-0.0448397
-0.0440997
-0.0431367
-0.0418756
-0.040248
-0.0381962
-0.0356071
-0.0323097
-0.0281118
-0.0228001
-0.016137
-0.00780562
0.00265485
0.0157687
0.0321628
0.0526519
0.0782758
0.110247
0.150091
0.199767
0.261669
0.338928
0.435197
0.555157
0.704617
0.891274
1.12363
1.41316
1.7736
2.22457
2.78647
3.48598
4.35775
5.44451
6.79867
8.48484
10.5847
13.1977
16.4464
20.4808
25.4842
31.6753
39.3185
48.7199
60.2318
74.2368
91.1279
111.264
134.883
162.012
192.262
224.608
257.132
286.966
304.243
314.452
-0.0451876
-0.0444768
-0.0440281
-0.0442391
-0.0441803
-0.0442452
-0.0442766
-0.0443164
-0.0443717
-0.044445
-0.044532
-0.0446361
-0.0447622
-0.0449081
-0.0450616
-0.0452175
-0.0453711
-0.045513
-0.0456327
-0.0457201
-0.0457704
-0.0457793
-0.0457387
-0.0456294
-0.0454353
-0.045156
-0.0447535
-0.0441959
-0.0434558
-0.0424971
-0.0412473
-0.0396328
-0.0375917
-0.0350114
-0.0317249
-0.0275468
-0.0222669
-0.0156389
-0.00734331
0.00307277
0.0161299
0.0324537
0.0528471
0.0783584
0.110184
0.149849
0.199293
0.260944
0.337854
0.433713
0.55318
0.702097
0.887972
1.11949
1.40816
1.76895
2.21546
2.77595
3.47324
4.34095
5.42384
6.77352
8.4549
10.5494
13.1568
16.4002
20.4308
25.4334
31.6302
39.2893
48.7255
60.3016
74.4178
91.491
111.913
135.983
163.767
194.923
228.451
262.377
294.154
311.802
323.501
-0.0448613
-0.0451117
-0.044532
-0.044837
-0.0447706
-0.0448416
-0.0448811
-0.044931
-0.0449956
-0.045076
-0.0451669
-0.045273
-0.0454008
-0.0455483
-0.0457026
-0.045858
-0.0460108
-0.0461526
-0.0462731
-0.0463615
-0.0464122
-0.0464217
-0.046383
-0.0462771
-0.0460873
-0.0458133
-0.0454151
-0.0448598
-0.0441208
-0.0431675
-0.0419298
-0.0403299
-0.0383012
-0.0357316
-0.0324592
-0.0283047
-0.0230588
-0.0164692
-0.00821384
0.00215025
0.0151411
0.0313836
0.051666
0.0770476
0.108707
0.148166
0.197332
0.258668
0.335151
0.430477
0.549284
0.69738
0.882073
1.11217
1.39897
1.75689
2.19999
2.75818
3.45184
4.31844
5.39641
6.7403
8.41513
10.5022
13.1015
16.3368
20.3602
25.3581
31.5563
39.2277
48.6944
60.3302
74.5573
91.8283
112.579
137.147
165.663
197.853
232.724
268.011
302.578
319.804
-0.0446397
-0.0442866
-0.0446004
-0.0445728
-0.0446341
-0.0446822
-0.0447548
-0.0448433
-0.0449385
-0.0450403
-0.0451612
-0.0453098
-0.0454804
-0.0456544
-0.0458143
-0.045958
-0.0460923
-0.0462199
-0.0463262
-0.0463936
-0.0464153
-0.0463911
-0.04632
-0.0461995
-0.0460143
-0.0457212
-0.0452722
-0.0446427
-0.0438234
-0.0427842
-0.0414568
-0.0397475
-0.0375501
-0.0347448
-0.0311962
-0.0267376
-0.0211
-0.0139641
-0.00502567
0.00612277
0.0200662
0.0375391
0.0593777
0.0865918
0.120398
0.162622
0.215442
0.281106
0.362802
0.464735
0.591668
0.749212
0.942951
1.19277
1.49839
1.87872
2.35203
2.94106
3.67393
4.58544
5.71864
7.12676
8.87551
11.0456
13.7363
17.069
21.1913
26.2824
32.5572
40.2715
49.7252
61.2624
75.2659
92.1379
112.257
135.896
163.07
193.211
224.534
256.993
-0.0448839