/*--------------------------------*- C++ -*----------------------------------*\
| =========                 |                                                 |
| \\      /  F ield         | OpenFOAM: The Open Source CFD Toolbox           |
|  \\    /   O peration     | Version:  v1906                                 |
|   \\  /    A nd           | Web:      www.OpenFOAM.com                      |
|    \\/     M anipulation  |                                                 |
\*---------------------------------------------------------------------------*/
FoamFile
{
    version     2.0;
    format      ascii;
    class       volScalarField;
    location    "0.25";
    object      p;
}
// * * * * * * * * * * * * * * * * * * * * * * * * * * * * * * * * * * * * * //

dimensions      [0 2 -2 0 0 0 0];


internalField   nonuniform List<scalar> 
243374
(
-8.80698e-16
-1.21094e-09
-8.11301e-10
-8.19155e-10
-8.59451e-10
-8.98292e-10
-9.34645e-10
-9.7421e-10
-1.01105e-09
-1.04603e-09
-1.076e-09
-1.10888e-09
-1.13797e-09
-1.16503e-09
-1.19106e-09
-1.21441e-09
-1.23814e-09
-1.26107e-09
-1.28214e-09
-1.30673e-09
-1.3294e-09
-1.35174e-09
-1.37453e-09
-1.39614e-09
-1.41671e-09
-1.44124e-09
-1.46066e-09
-1.48391e-09
-1.50655e-09
-1.52855e-09
-1.55036e-09
-1.57239e-09
-1.59461e-09
-1.61535e-09
-1.63889e-09
-1.66134e-09
-1.68141e-09
-1.70553e-09
-1.72565e-09
-1.74816e-09
-1.76966e-09
-1.79324e-09
-1.81306e-09
-1.83712e-09
-1.85835e-09
-1.8819e-09
-1.90206e-09
-1.92343e-09
-1.94698e-09
-1.96892e-09
-1.99145e-09
-2.01211e-09
-2.03284e-09
-2.0555e-09
-2.07529e-09
-2.09859e-09
-2.12089e-09
-2.14181e-09
-2.16259e-09
-2.1836e-09
-2.20427e-09
-2.22603e-09
-2.24924e-09
-2.27127e-09
-2.29536e-09
-2.3202e-09
-2.34962e-09
-2.37892e-09
-2.4161e-09
-2.4628e-09
-2.51731e-09
-2.58807e-09
-2.68189e-09
-2.81137e-09
-2.98133e-09
-3.21655e-09
-3.54348e-09
-3.96651e-09
-4.14019e-09
-6.20897e-09
-1.38058e-09
-9.95884e-10
-8.22397e-10
-8.30401e-10
-8.64798e-10
-9.02526e-10
-9.41183e-10
-9.78433e-10
-1.01408e-09
-1.0485e-09
-1.08259e-09
-1.11306e-09
-1.14144e-09
-1.16784e-09
-1.1935e-09
-1.21769e-09
-1.24141e-09
-1.26468e-09
-1.28721e-09
-1.30997e-09
-1.33339e-09
-1.35468e-09
-1.37707e-09
-1.39886e-09
-1.42183e-09
-1.44398e-09
-1.46573e-09
-1.48774e-09
-1.50954e-09
-1.5317e-09
-1.55371e-09
-1.576e-09
-1.59751e-09
-1.62028e-09
-1.64192e-09
-1.66531e-09
-1.68604e-09
-1.70859e-09
-1.72928e-09
-1.75208e-09
-1.77323e-09
-1.79602e-09
-1.81946e-09
-1.83985e-09
-1.86351e-09
-1.88463e-09
-1.90672e-09
-1.92825e-09
-1.95006e-09
-1.97245e-09
-1.99419e-09
-2.01546e-09
-2.03617e-09
-2.05881e-09
-2.08053e-09
-2.102e-09
-2.1234e-09
-2.14512e-09
-2.16699e-09
-2.18744e-09
-2.20947e-09
-2.23176e-09
-2.25317e-09
-2.27554e-09
-2.29983e-09
-2.32588e-09
-2.35521e-09
-2.38753e-09
-2.4256e-09
-2.47026e-09
-2.52613e-09
-2.59775e-09
-2.6939e-09
-2.82322e-09
-2.99956e-09
-3.24025e-09
-3.57355e-09
-4.00828e-09
-4.42827e-09
-4.9052e-09
-1.84992e-09
-9.31846e-10
-8.13539e-10
-8.30095e-10
-8.61535e-10
-8.96526e-10
-9.33706e-10
-9.73093e-10
-1.00944e-09
-1.04552e-09
-1.07874e-09
-1.10904e-09
-1.13803e-09
-1.16497e-09
-1.19011e-09
-1.21428e-09
-1.23705e-09
-1.26119e-09
-1.28395e-09
-1.30656e-09
-1.32988e-09
-1.35188e-09
-1.37408e-09
-1.39577e-09
-1.41834e-09
-1.44047e-09
-1.46196e-09
-1.48461e-09
-1.50657e-09
-1.52856e-09
-1.55073e-09
-1.57336e-09
-1.59508e-09
-1.61675e-09
-1.63905e-09
-1.66112e-09
-1.68379e-09
-1.70541e-09
-1.72808e-09
-1.74911e-09
-1.77236e-09
-1.79385e-09
-1.81582e-09
-1.83835e-09
-1.85986e-09
-1.88158e-09
-1.90344e-09
-1.92503e-09
-1.94733e-09
-1.96771e-09
-1.9907e-09
-2.01266e-09
-2.03446e-09
-2.05536e-09
-2.0774e-09
-2.099e-09
-2.12027e-09
-2.14234e-09
-2.16386e-09
-2.18509e-09
-2.20651e-09
-2.22884e-09
-2.25062e-09
-2.27224e-09
-2.29783e-09
-2.32439e-09
-2.35353e-09
-2.38679e-09
-2.42553e-09
-2.47108e-09
-2.52904e-09
-2.60277e-09
-2.70082e-09
-2.83379e-09
-3.0155e-09
-3.26176e-09
-3.6002e-09
-4.05252e-09
-4.54481e-09
-4.47975e-09
-6.99056e-10
1.98314e-09
-6.25547e-10
-8.026e-10
-8.27459e-10
-8.5841e-10
-8.94494e-10
-9.32704e-10
-9.71992e-10
-1.00973e-09
-1.04531e-09
-1.07992e-09
-1.1119e-09
-1.14021e-09
-1.16623e-09
-1.19118e-09
-1.21534e-09
-1.2399e-09
-1.26138e-09
-1.28436e-09
-1.30742e-09
-1.3298e-09
-1.35224e-09
-1.37443e-09
-1.39715e-09
-1.41855e-09
-1.44135e-09
-1.46379e-09
-1.48502e-09
-1.50699e-09
-1.52918e-09
-1.55099e-09
-1.57341e-09
-1.59504e-09
-1.61752e-09
-1.63915e-09
-1.66098e-09
-1.68285e-09
-1.70444e-09
-1.72673e-09
-1.74854e-09
-1.77119e-09
-1.79301e-09
-1.8152e-09
-1.8377e-09
-1.86008e-09
-1.88256e-09
-1.90348e-09
-1.92524e-09
-1.94755e-09
-1.96939e-09
-1.99141e-09
-2.01301e-09
-2.03477e-09
-2.057e-09
-2.07785e-09
-2.09971e-09
-2.12138e-09
-2.14286e-09
-2.16424e-09
-2.18555e-09
-2.20724e-09
-2.22934e-09
-2.2519e-09
-2.27536e-09
-2.29936e-09
-2.32583e-09
-2.35537e-09
-2.38946e-09
-2.4281e-09
-2.47466e-09
-2.533e-09
-2.60834e-09
-2.70872e-09
-2.84508e-09
-3.03022e-09
-3.28284e-09
-3.62665e-09
-4.09339e-09
-4.86525e-09
-8.3371e-09
-6.67773e-09
-3.04856e-10
-2.22481e-09
-9.71418e-10
-8.07303e-10
-8.25716e-10
-8.5542e-10
-8.91309e-10
-9.30235e-10
-9.69539e-10
-1.0076e-09
-1.04409e-09
-1.07902e-09
-1.10976e-09
-1.13835e-09
-1.16506e-09
-1.18996e-09
-1.21411e-09
-1.23757e-09
-1.26053e-09
-1.28357e-09
-1.30611e-09
-1.329e-09
-1.3514e-09
-1.37349e-09
-1.39571e-09
-1.4178e-09
-1.44019e-09
-1.46228e-09
-1.48423e-09
-1.50608e-09
-1.52806e-09
-1.54994e-09
-1.57255e-09
-1.59401e-09
-1.6164e-09
-1.63794e-09
-1.65966e-09
-1.68186e-09
-1.70359e-09
-1.72604e-09
-1.74835e-09
-1.7707e-09
-1.79239e-09
-1.8143e-09
-1.8362e-09
-1.85864e-09
-1.88076e-09
-1.90221e-09
-1.92438e-09
-1.94664e-09
-1.96825e-09
-1.98994e-09
-2.012e-09
-2.03387e-09
-2.05561e-09
-2.07704e-09
-2.0987e-09
-2.12016e-09
-2.14201e-09
-2.16332e-09
-2.18519e-09
-2.20694e-09
-2.22902e-09
-2.25131e-09
-2.27472e-09
-2.29929e-09
-2.32623e-09
-2.35595e-09
-2.39058e-09
-2.4299e-09
-2.47684e-09
-2.53648e-09
-2.61303e-09
-2.7152e-09
-2.85433e-09
-3.04364e-09
-3.30108e-09
-3.65047e-09
-4.12075e-09
-4.60988e-09
-4.2808e-09
-6.63685e-09
-7.74876e-09
1.72766e-10
8.93756e-10
-6.30196e-10
-7.98641e-10
-8.25142e-10
-8.53878e-10
-8.89438e-10
-9.28452e-10
-9.68361e-10
-1.00677e-09
-1.04394e-09
-1.07879e-09
-1.10993e-09
-1.13833e-09
-1.16483e-09
-1.18989e-09
-1.21383e-09
-1.23751e-09
-1.26069e-09
-1.28323e-09
-1.30611e-09
-1.32886e-09
-1.35114e-09
-1.37347e-09
-1.39547e-09
-1.41777e-09
-1.43992e-09
-1.46225e-09
-1.48389e-09
-1.50603e-09
-1.5278e-09
-1.54987e-09
-1.57208e-09
-1.5939e-09
-1.61561e-09
-1.63707e-09
-1.65917e-09
-1.6815e-09
-1.70346e-09
-1.7258e-09
-1.7483e-09
-1.7707e-09
-1.7923e-09
-1.81414e-09
-1.83602e-09
-1.85792e-09
-1.88007e-09
-1.90176e-09
-1.92422e-09
-1.94618e-09
-1.96807e-09
-1.99e-09
-2.01188e-09
-2.0337e-09
-2.05545e-09
-2.07694e-09
-2.09861e-09
-2.12017e-09
-2.14173e-09
-2.16361e-09
-2.18519e-09
-2.20715e-09
-2.22916e-09
-2.25183e-09
-2.27555e-09
-2.30013e-09
-2.32684e-09
-2.35715e-09
-2.39204e-09
-2.43164e-09
-2.47969e-09
-2.53963e-09
-2.61734e-09
-2.72113e-09
-2.86233e-09
-3.05471e-09
-3.31485e-09
-3.66796e-09
-4.14887e-09
-4.9319e-09
-7.27095e-09
-6.78777e-09
-7.81656e-09
-3.01996e-10
-1.11066e-09
-8.34582e-10
-8.01803e-10
-8.24053e-10
-8.52753e-10
-8.88367e-10
-9.27723e-10
-9.67636e-10
-1.00616e-09
-1.0436e-09
-1.07839e-09
-1.10962e-09
-1.13805e-09
-1.16449e-09
-1.1896e-09
-1.21353e-09
-1.23735e-09
-1.26057e-09
-1.28289e-09
-1.30587e-09
-1.3285e-09
-1.35086e-09
-1.37325e-09
-1.39528e-09
-1.4176e-09
-1.43953e-09
-1.46201e-09
-1.48373e-09
-1.50569e-09
-1.5275e-09
-1.54971e-09
-1.57174e-09
-1.59338e-09
-1.61514e-09
-1.63678e-09
-1.65907e-09
-1.68114e-09
-1.70308e-09
-1.72529e-09
-1.74736e-09
-1.76925e-09
-1.79107e-09
-1.81322e-09
-1.83538e-09
-1.8574e-09
-1.87964e-09
-1.90157e-09
-1.92399e-09
-1.94599e-09
-1.96787e-09
-1.98976e-09
-2.01166e-09
-2.03361e-09
-2.0553e-09
-2.07683e-09
-2.09845e-09
-2.11983e-09
-2.14162e-09
-2.16347e-09
-2.18526e-09
-2.2072e-09
-2.22938e-09
-2.25218e-09
-2.27592e-09
-2.30083e-09
-2.32747e-09
-2.35837e-09
-2.39332e-09
-2.43332e-09
-2.48185e-09
-2.54264e-09
-2.62095e-09
-2.72578e-09
-2.86848e-09
-3.06273e-09
-3.32479e-09
-3.67994e-09
-4.16089e-09
-4.76781e-09
-5.33134e-09
-6.73266e-09
-7.87688e-09
-8.38207e-10
-1.15554e-09
-8.30518e-10
-8.01814e-10
-8.2403e-10
-8.52801e-10
-8.88364e-10
-9.27752e-10
-9.67652e-10
-1.00617e-09
-1.04355e-09
-1.07843e-09
-1.10972e-09
-1.13795e-09
-1.16461e-09
-1.1897e-09
-1.21365e-09
-1.23751e-09
-1.26048e-09
-1.28288e-09
-1.30589e-09
-1.32848e-09
-1.35098e-09
-1.37331e-09
-1.3952e-09
-1.41765e-09
-1.43955e-09
-1.46195e-09
-1.48382e-09
-1.50571e-09
-1.52763e-09
-1.54979e-09
-1.57182e-09
-1.59355e-09
-1.61518e-09
-1.63706e-09
-1.6594e-09
-1.6814e-09
-1.70336e-09
-1.72579e-09
-1.74799e-09
-1.77001e-09
-1.7917e-09
-1.81348e-09
-1.8355e-09
-1.85758e-09
-1.87983e-09
-1.90176e-09
-1.92412e-09
-1.9461e-09
-1.96808e-09
-1.98979e-09
-2.01175e-09
-2.0337e-09
-2.0554e-09
-2.07703e-09
-2.09858e-09
-2.12008e-09
-2.14186e-09
-2.16381e-09
-2.18563e-09
-2.20761e-09
-2.22985e-09
-2.25275e-09
-2.27667e-09
-2.30173e-09
-2.3286e-09
-2.35962e-09
-2.3947e-09
-2.43501e-09
-2.484e-09
-2.54519e-09
-2.62399e-09
-2.72934e-09
-2.87266e-09
-3.06742e-09
-3.33005e-09
-3.6858e-09
-4.16722e-09
-4.76953e-09
-5.37911e-09
-6.65482e-09
-7.89955e-09
-1.211e-09
8.13851e-10
-6.46167e-10
-7.99586e-10
-8.24992e-10
-8.54022e-10
-8.89427e-10
-9.28541e-10
-9.68193e-10
-1.00673e-09
-1.04379e-09
-1.07876e-09
-1.11016e-09
-1.1383e-09
-1.16517e-09
-1.1903e-09
-1.21415e-09
-1.23769e-09
-1.26139e-09
-1.28343e-09
-1.30602e-09
-1.32871e-09
-1.35133e-09
-1.37364e-09
-1.39556e-09
-1.41831e-09
-1.43978e-09
-1.46254e-09
-1.48398e-09
-1.50584e-09
-1.52804e-09
-1.55018e-09
-1.57243e-09
-1.59403e-09
-1.61561e-09
-1.63727e-09
-1.65943e-09
-1.68122e-09
-1.70303e-09
-1.72523e-09
-1.7476e-09
-1.76982e-09
-1.7917e-09
-1.81336e-09
-1.83556e-09
-1.85787e-09
-1.88041e-09
-1.90233e-09
-1.92461e-09
-1.94643e-09
-1.96846e-09
-1.99016e-09
-2.01194e-09
-2.0339e-09
-2.05587e-09
-2.07749e-09
-2.099e-09
-2.12058e-09
-2.14229e-09
-2.16432e-09
-2.18628e-09
-2.20817e-09
-2.23056e-09
-2.25352e-09
-2.27741e-09
-2.30275e-09
-2.32998e-09
-2.36063e-09
-2.39613e-09
-2.43678e-09
-2.486e-09
-2.54705e-09
-2.62636e-09
-2.73181e-09
-2.87481e-09
-3.06887e-09
-3.33084e-09
-3.68579e-09
-4.16922e-09
-4.97428e-09
-7.368e-09
-6.67132e-09
-7.89574e-09
-1.21944e-09
-2.15493e-09
-9.45489e-10
-8.05967e-10
-8.257e-10
-8.55409e-10
-8.91341e-10
-9.30457e-10
-9.69262e-10
-1.00757e-09
-1.04409e-09
-1.07886e-09
-1.10987e-09
-1.13813e-09
-1.16528e-09
-1.1902e-09
-1.2144e-09
-1.23791e-09
-1.26011e-09
-1.28352e-09
-1.30613e-09
-1.32858e-09
-1.35151e-09
-1.37345e-09
-1.39582e-09
-1.41744e-09
-1.43973e-09
-1.46156e-09
-1.48405e-09
-1.5061e-09
-1.52782e-09
-1.55031e-09
-1.57171e-09
-1.59434e-09
-1.61631e-09
-1.63827e-09
-1.66035e-09
-1.68181e-09
-1.70373e-09
-1.72583e-09
-1.74792e-09
-1.77016e-09
-1.79237e-09
-1.81389e-09
-1.83659e-09
-1.8588e-09
-1.88124e-09
-1.90268e-09
-1.9245e-09
-1.9466e-09
-1.96808e-09
-1.99036e-09
-2.01224e-09
-2.03384e-09
-2.0559e-09
-2.07729e-09
-2.09911e-09
-2.12065e-09
-2.14208e-09
-2.16467e-09
-2.18583e-09
-2.20847e-09
-2.2309e-09
-2.254e-09
-2.27802e-09
-2.30351e-09
-2.33067e-09
-2.36152e-09
-2.39731e-09
-2.43769e-09
-2.48766e-09
-2.5488e-09
-2.62796e-09
-2.73286e-09
-2.87487e-09
-3.06767e-09
-3.32775e-09
-3.68009e-09
-4.15213e-09
-4.61693e-09
-4.27231e-09
-6.61217e-09
-7.9188e-09
-7.63772e-10
1.96935e-09
-6.47724e-10
-8.02686e-10
-8.27262e-10
-8.58016e-10
-8.94588e-10
-9.32906e-10
-9.71875e-10
-1.00944e-09
-1.0462e-09
-1.08048e-09
-1.11189e-09
-1.14044e-09
-1.16687e-09
-1.19172e-09
-1.21586e-09
-1.23904e-09
-1.26287e-09
-1.28499e-09
-1.3067e-09
-1.32955e-09
-1.35249e-09
-1.37428e-09
-1.39708e-09
-1.41973e-09
-1.44173e-09
-1.46399e-09
-1.48556e-09
-1.507e-09
-1.52931e-09
-1.55136e-09
-1.57434e-09
-1.59578e-09
-1.61807e-09
-1.64011e-09
-1.66253e-09
-1.68307e-09
-1.70467e-09
-1.72657e-09
-1.74863e-09
-1.77079e-09
-1.79344e-09
-1.81544e-09
-1.83827e-09
-1.86068e-09
-1.88278e-09
-1.90401e-09
-1.92599e-09
-1.94837e-09
-1.96985e-09
-1.99194e-09
-2.01284e-09
-2.03569e-09
-2.05752e-09
-2.07917e-09
-2.10087e-09
-2.1223e-09
-2.14309e-09
-2.16623e-09
-2.18846e-09
-2.20963e-09
-2.23276e-09
-2.25597e-09
-2.28015e-09
-2.30555e-09
-2.33313e-09
-2.3637e-09
-2.4001e-09
-2.4395e-09
-2.48914e-09
-2.55042e-09
-2.62927e-09
-2.73315e-09
-2.87368e-09
-3.06305e-09
-3.32018e-09
-3.66791e-09
-4.13853e-09
-4.93644e-09
-8.39655e-09
-6.70496e-09
-7.77089e-09
-6.73241e-10
-1.87155e-09
-9.29325e-10
-8.13518e-10
-8.29643e-10
-8.60929e-10
-8.96654e-10
-9.3421e-10
-9.71979e-10
-1.00981e-09
-1.04507e-09
-1.07884e-09
-1.10971e-09
-1.13779e-09
-1.16442e-09
-1.18933e-09
-1.21347e-09
-1.23776e-09
-1.26045e-09
-1.2827e-09
-1.30651e-09
-1.3294e-09
-1.35096e-09
-1.37366e-09
-1.39522e-09
-1.41758e-09
-1.43939e-09
-1.46141e-09
-1.48332e-09
-1.50545e-09
-1.52755e-09
-1.55009e-09
-1.57153e-09
-1.59386e-09
-1.61612e-09
-1.63808e-09
-1.6601e-09
-1.68327e-09
-1.70479e-09
-1.72699e-09
-1.74866e-09
-1.77068e-09
-1.79358e-09
-1.81557e-09
-1.8367e-09
-1.85873e-09
-1.88004e-09
-1.90227e-09
-1.92417e-09
-1.94651e-09
-1.96806e-09
-1.98911e-09
-2.01229e-09
-2.03329e-09
-2.05537e-09
-2.07637e-09
-2.0987e-09
-2.1207e-09
-2.14301e-09
-2.16475e-09
-2.18628e-09
-2.20892e-09
-2.23075e-09
-2.25461e-09
-2.27865e-09
-2.30328e-09
-2.33179e-09
-2.36285e-09
-2.3985e-09
-2.4397e-09
-2.48961e-09
-2.55068e-09
-2.62921e-09
-2.73214e-09
-2.8701e-09
-3.05678e-09
-3.30903e-09
-3.65288e-09
-4.11006e-09
-4.60279e-09
-4.56201e-09
-6.5512e-09
-1.38482e-09
-9.96699e-10
-8.21736e-10
-8.29753e-10
-8.67113e-10
-9.0279e-10
-9.40611e-10
-9.7758e-10
-1.01422e-09
-1.04902e-09
-1.0816e-09
-1.11275e-09
-1.14102e-09
-1.16884e-09
-1.19315e-09
-1.21835e-09
-1.24097e-09
-1.26375e-09
-1.28659e-09
-1.31065e-09
-1.33283e-09
-1.35524e-09
-1.37751e-09
-1.39863e-09
-1.42074e-09
-1.44295e-09
-1.46519e-09
-1.48727e-09
-1.5095e-09
-1.53104e-09
-1.55321e-09
-1.57568e-09
-1.59741e-09
-1.61931e-09
-1.64148e-09
-1.66393e-09
-1.68677e-09
-1.70924e-09
-1.73006e-09
-1.75196e-09
-1.77509e-09
-1.79708e-09
-1.81873e-09
-1.83978e-09
-1.86217e-09
-1.88522e-09
-1.90571e-09
-1.92825e-09
-1.94981e-09
-1.97129e-09
-1.99479e-09
-2.01596e-09
-2.03668e-09
-2.05918e-09
-2.08174e-09
-2.10249e-09
-2.12422e-09
-2.14633e-09
-2.16887e-09
-2.18928e-09
-2.21271e-09
-2.23492e-09
-2.25815e-09
-2.28208e-09
-2.30892e-09
-2.33598e-09
-2.36698e-09
-2.40253e-09
-2.44466e-09
-2.4924e-09
-2.55336e-09
-2.62989e-09
-2.73128e-09
-2.8659e-09
-3.04995e-09
-3.29698e-09
-3.63593e-09
-4.07702e-09
-4.50268e-09
-4.98502e-09
-4.79354e-12
-1.20958e-09
-8.10893e-10
-8.19558e-10
-8.59511e-10
-8.97914e-10
-9.35837e-10
-9.72214e-10
-1.01091e-09
-1.04604e-09
-1.0795e-09
-1.10993e-09
-1.13766e-09
-1.16385e-09
-1.18974e-09
-1.21254e-09
-1.23792e-09
-1.26105e-09
-1.28378e-09
-1.30745e-09
-1.32911e-09
-1.35034e-09
-1.37208e-09
-1.3959e-09
-1.41912e-09
-1.43979e-09
-1.46149e-09
-1.48404e-09
-1.50346e-09
-1.52798e-09
-1.5515e-09
-1.57217e-09
-1.59452e-09
-1.61729e-09
-1.63836e-09
-1.66073e-09
-1.68458e-09
-1.70605e-09
-1.72755e-09
-1.74899e-09
-1.77133e-09
-1.79206e-09
-1.81549e-09
-1.83731e-09
-1.85916e-09
-1.8785e-09
-1.90314e-09
-1.9242e-09
-1.94783e-09
-1.96873e-09
-1.98964e-09
-2.01065e-09
-2.03449e-09
-2.05717e-09
-2.07734e-09
-2.09956e-09
-2.12146e-09
-2.14376e-09
-2.16411e-09
-2.18702e-09
-2.20981e-09
-2.2323e-09
-2.25563e-09
-2.28083e-09
-2.30265e-09
-2.33308e-09
-2.36225e-09
-2.40027e-09
-2.44013e-09
-2.48829e-09
-2.5478e-09
-2.62588e-09
-2.72505e-09
-2.85964e-09
-3.03978e-09
-3.28245e-09
-3.61592e-09
-4.04608e-09
-4.22538e-09
-6.30186e-09
-2.69095e-11
-8.46212e-10
-8.1635e-10
-8.4068e-10
-8.67805e-10
-9.04068e-10
-9.40149e-10
-9.76816e-10
-1.01216e-09
-1.04569e-09
-1.07665e-09
-1.1082e-09
-1.13706e-09
-1.16452e-09
-1.18979e-09
-1.21349e-09
-1.23744e-09
-1.261e-09
-1.28595e-09
-1.30593e-09
-1.32875e-09
-1.35135e-09
-1.37351e-09
-1.39388e-09
-1.41886e-09
-1.43992e-09
-1.4625e-09
-1.48288e-09
-1.50564e-09
-1.52941e-09
-1.54964e-09
-1.57216e-09
-1.59287e-09
-1.61634e-09
-1.63893e-09
-1.66019e-09
-1.68138e-09
-1.70309e-09
-1.72618e-09
-1.74803e-09
-1.76866e-09
-1.79192e-09
-1.81343e-09
-1.83647e-09
-1.85942e-09
-1.87948e-09
-1.90269e-09
-1.92305e-09
-1.94601e-09
-1.96843e-09
-1.98911e-09
-2.01175e-09
-2.03326e-09
-2.05435e-09
-2.07541e-09
-2.09918e-09
-2.11863e-09
-2.13789e-09
-2.16042e-09
-2.18325e-09
-2.20333e-09
-2.22404e-09
-2.2454e-09
-2.26726e-09
-2.28838e-09
-2.31243e-09
-2.33715e-09
-2.36411e-09
-2.39916e-09
-2.43542e-09
-2.47922e-09
-2.53831e-09
-2.61254e-09
-2.71339e-09
-2.84822e-09
-3.03393e-09
-3.29983e-09
-3.66645e-09
-4.137e-09
-5.71426e-09
-1.4166e-09
-1.648e-09
-7.87453e-10
-8.1317e-10
-8.45045e-10
-8.76816e-10
-9.09866e-10
-9.44343e-10
-9.79432e-10
-1.01306e-09
-1.04705e-09
-1.07943e-09
-1.1097e-09
-1.1396e-09
-1.16638e-09
-1.19278e-09
-1.217e-09
-1.24053e-09
-1.26351e-09
-1.28665e-09
-1.30907e-09
-1.33078e-09
-1.35397e-09
-1.37616e-09
-1.39894e-09
-1.42063e-09
-1.44231e-09
-1.46454e-09
-1.48738e-09
-1.50842e-09
-1.53102e-09
-1.55318e-09
-1.57437e-09
-1.59629e-09
-1.61896e-09
-1.64116e-09
-1.66209e-09
-1.68475e-09
-1.70705e-09
-1.72831e-09
-1.75024e-09
-1.77414e-09
-1.79467e-09
-1.81596e-09
-1.83995e-09
-1.86063e-09
-1.88276e-09
-1.90503e-09
-1.92698e-09
-1.95005e-09
-1.96974e-09
-1.99163e-09
-2.01432e-09
-2.03548e-09
-2.05743e-09
-2.07959e-09
-2.09949e-09
-2.12162e-09
-2.14337e-09
-2.1636e-09
-2.18518e-09
-2.20831e-09
-2.22813e-09
-2.24789e-09
-2.27039e-09
-2.29341e-09
-2.3159e-09
-2.34235e-09
-2.37273e-09
-2.40335e-09
-2.44153e-09
-2.48897e-09
-2.54741e-09
-2.6257e-09
-2.73059e-09
-2.87195e-09
-3.07026e-09
-3.34911e-09
-3.74287e-09
-4.29538e-09
-4.20852e-09
-5.62689e-09
-6.52087e-10
5.09114e-10
-7.25222e-10
-8.06078e-10
-8.39485e-10
-8.71441e-10
-9.04596e-10
-9.38118e-10
-9.73019e-10
-1.00847e-09
-1.0427e-09
-1.07677e-09
-1.10911e-09
-1.13712e-09
-1.16483e-09
-1.19049e-09
-1.2146e-09
-1.2389e-09
-1.26199e-09
-1.28432e-09
-1.30773e-09
-1.32944e-09
-1.35223e-09
-1.37489e-09
-1.39592e-09
-1.41803e-09
-1.43981e-09
-1.46265e-09
-1.48485e-09
-1.50716e-09
-1.52887e-09
-1.54886e-09
-1.57215e-09
-1.59504e-09
-1.61737e-09
-1.63897e-09
-1.66086e-09
-1.68273e-09
-1.70413e-09
-1.72666e-09
-1.74868e-09
-1.77148e-09
-1.79261e-09
-1.81489e-09
-1.83625e-09
-1.8594e-09
-1.88028e-09
-1.9037e-09
-1.9252e-09
-1.94708e-09
-1.96923e-09
-1.98935e-09
-2.01258e-09
-2.0346e-09
-2.05649e-09
-2.07679e-09
-2.09804e-09
-2.11909e-09
-2.14142e-09
-2.16278e-09
-2.18404e-09
-2.20446e-09
-2.22605e-09
-2.24756e-09
-2.26971e-09
-2.29197e-09
-2.31684e-09
-2.3417e-09
-2.3728e-09
-2.40638e-09
-2.44592e-09
-2.49391e-09
-2.5578e-09
-2.64032e-09
-2.75319e-09
-2.90471e-09
-3.11502e-09
-3.40933e-09
-3.82218e-09
-4.44806e-09
-6.46486e-09
-5.96592e-09
-6.69976e-09
-6.58046e-10
-6.45385e-10
-7.34016e-10
-8.02303e-10
-8.33279e-10
-8.65996e-10
-9.00305e-10
-9.33844e-10
-9.71806e-10
-1.00761e-09
-1.04266e-09
-1.07741e-09
-1.10621e-09
-1.13766e-09
-1.16562e-09
-1.19023e-09
-1.21592e-09
-1.23781e-09
-1.26268e-09
-1.28523e-09
-1.30731e-09
-1.32936e-09
-1.35066e-09
-1.37557e-09
-1.39795e-09
-1.41868e-09
-1.4402e-09
-1.4611e-09
-1.48549e-09
-1.50786e-09
-1.52894e-09
-1.54941e-09
-1.57233e-09
-1.59597e-09
-1.61845e-09
-1.63978e-09
-1.65895e-09
-1.6834e-09
-1.70498e-09
-1.72512e-09
-1.74646e-09
-1.77169e-09
-1.79213e-09
-1.81464e-09
-1.83841e-09
-1.85722e-09
-1.8804e-09
-1.90409e-09
-1.92586e-09
-1.94777e-09
-1.96677e-09
-1.99063e-09
-2.01294e-09
-2.0355e-09
-2.05391e-09
-2.07762e-09
-2.09947e-09
-2.11935e-09
-2.14246e-09
-2.16109e-09
-2.18433e-09
-2.20577e-09
-2.22582e-09
-2.24869e-09
-2.26907e-09
-2.29398e-09
-2.31775e-09
-2.34461e-09
-2.37523e-09
-2.40882e-09
-2.45046e-09
-2.50271e-09
-2.56869e-09
-2.65651e-09
-2.77555e-09
-2.93537e-09
-3.15736e-09
-3.46531e-09
-3.89336e-09
-4.52543e-09
-5.41154e-09
-6.033e-09
-6.99741e-09
-6.93772e-10
-4.81018e-10
-6.93346e-10
-7.97583e-10
-8.28141e-10
-8.6397e-10
-9.02188e-10
-9.41794e-10
-9.77442e-10
-1.0141e-09
-1.0489e-09
-1.08027e-09
-1.11359e-09
-1.13997e-09
-1.16707e-09
-1.19422e-09
-1.21709e-09
-1.24303e-09
-1.26393e-09
-1.28626e-09
-1.30905e-09
-1.33219e-09
-1.3572e-09
-1.37679e-09
-1.39881e-09
-1.42008e-09
-1.44473e-09
-1.46747e-09
-1.48609e-09
-1.50905e-09
-1.53123e-09
-1.55523e-09
-1.57657e-09
-1.59738e-09
-1.61797e-09
-1.64159e-09
-1.66691e-09
-1.68447e-09
-1.70758e-09
-1.73031e-09
-1.75327e-09
-1.77392e-09
-1.79684e-09
-1.81619e-09
-1.83971e-09
-1.86461e-09
-1.88554e-09
-1.9049e-09
-1.9266e-09
-1.94947e-09
-1.97407e-09
-1.99454e-09
-2.01461e-09
-2.0358e-09
-2.06074e-09
-2.07877e-09
-2.10078e-09
-2.12438e-09
-2.14412e-09
-2.16762e-09
-2.1859e-09
-2.20767e-09
-2.23049e-09
-2.25081e-09
-2.27643e-09
-2.29709e-09
-2.32188e-09
-2.35176e-09
-2.38116e-09
-2.42026e-09
-2.46429e-09
-2.51801e-09
-2.58838e-09
-2.68127e-09
-2.80582e-09
-2.97527e-09
-3.20743e-09
-3.52528e-09
-3.96216e-09
-4.64948e-09
-5.67324e-09
-6.17698e-09
-7.44889e-09
-7.7086e-10
-1.48234e-09
-8.12537e-10
-8.08711e-10
-8.32001e-10
-8.71808e-10
-9.10954e-10
-9.5e-10
-9.86052e-10
-1.02102e-09
-1.05462e-09
-1.08786e-09
-1.11669e-09
-1.14466e-09
-1.17125e-09
-1.19643e-09
-1.22042e-09
-1.24421e-09
-1.26731e-09
-1.29248e-09
-1.31233e-09
-1.33733e-09
-1.35824e-09
-1.37961e-09
-1.40214e-09
-1.42491e-09
-1.44603e-09
-1.46899e-09
-1.49156e-09
-1.51213e-09
-1.53358e-09
-1.55624e-09
-1.58002e-09
-1.60059e-09
-1.62432e-09
-1.6442e-09
-1.6685e-09
-1.69114e-09
-1.71135e-09
-1.73619e-09
-1.75724e-09
-1.77999e-09
-1.80222e-09
-1.82314e-09
-1.84403e-09
-1.86648e-09
-1.88678e-09
-1.91111e-09
-1.93189e-09
-1.95223e-09
-1.97565e-09
-1.99624e-09
-2.01681e-09
-2.04203e-09
-2.06143e-09
-2.08417e-09
-2.10382e-09
-2.12568e-09
-2.14727e-09
-2.16855e-09
-2.19101e-09
-2.21226e-09
-2.23543e-09
-2.25496e-09
-2.27848e-09
-2.3003e-09
-2.32853e-09
-2.35591e-09
-2.39136e-09
-2.43078e-09
-2.4754e-09
-2.53262e-09
-2.60558e-09
-2.70087e-09
-2.8295e-09
-3.00361e-09
-3.24372e-09
-3.57167e-09
-4.01494e-09
-4.61033e-09
-4.77379e-09
-6.23041e-09
-7.58347e-09
-7.87167e-10
-1.51349e-09
-8.37511e-10
-8.09356e-10
-8.34515e-10
-8.72501e-10
-9.11084e-10
-9.49247e-10
-9.85711e-10
-1.01956e-09
-1.05326e-09
-1.0854e-09
-1.11527e-09
-1.14299e-09
-1.16932e-09
-1.19459e-09
-1.21796e-09
-1.2416e-09
-1.26479e-09
-1.28893e-09
-1.31014e-09
-1.33401e-09
-1.35424e-09
-1.37725e-09
-1.39955e-09
-1.42109e-09
-1.44432e-09
-1.46551e-09
-1.48739e-09
-1.50978e-09
-1.53186e-09
-1.55508e-09
-1.5773e-09
-1.59946e-09
-1.62042e-09
-1.64353e-09
-1.66554e-09
-1.68889e-09
-1.70977e-09
-1.73358e-09
-1.75531e-09
-1.77778e-09
-1.79983e-09
-1.82113e-09
-1.84169e-09
-1.86357e-09
-1.8848e-09
-1.90756e-09
-1.92857e-09
-1.94955e-09
-1.97196e-09
-1.99426e-09
-2.01513e-09
-2.03808e-09
-2.05926e-09
-2.08003e-09
-2.10206e-09
-2.12359e-09
-2.1444e-09
-2.16785e-09
-2.18842e-09
-2.2101e-09
-2.2327e-09
-2.2532e-09
-2.2762e-09
-2.30042e-09
-2.32793e-09
-2.35815e-09
-2.39141e-09
-2.43159e-09
-2.47854e-09
-2.53724e-09
-2.61234e-09
-2.71074e-09
-2.84259e-09
-3.02165e-09
-3.26821e-09
-3.60448e-09
-4.05591e-09
-4.63504e-09
-4.80157e-09
-6.28853e-09
-7.68771e-09
-7.74998e-10
-1.00437e-09
-7.50558e-10
-8.03089e-10
-8.3515e-10
-8.72643e-10
-9.10715e-10
-9.48575e-10
-9.85222e-10
-1.01949e-09
-1.05321e-09
-1.08587e-09
-1.11745e-09
-1.14544e-09
-1.17177e-09
-1.19716e-09
-1.22062e-09
-1.2447e-09
-1.26719e-09
-1.289e-09
-1.31221e-09
-1.33431e-09
-1.35673e-09
-1.3792e-09
-1.40187e-09
-1.42343e-09
-1.44649e-09
-1.46821e-09
-1.49011e-09
-1.51178e-09
-1.53409e-09
-1.55561e-09
-1.57797e-09
-1.59983e-09
-1.62253e-09
-1.6437e-09
-1.66565e-09
-1.68748e-09
-1.70954e-09
-1.73207e-09
-1.75423e-09
-1.77651e-09
-1.79878e-09
-1.81996e-09
-1.8414e-09
-1.8641e-09
-1.8875e-09
-1.9077e-09
-1.93057e-09
-1.95186e-09
-1.97242e-09
-1.99652e-09
-2.01714e-09
-2.03995e-09
-2.06158e-09
-2.08268e-09
-2.10412e-09
-2.12603e-09
-2.14681e-09
-2.16847e-09
-2.19027e-09
-2.21245e-09
-2.23328e-09
-2.25608e-09
-2.2798e-09
-2.30366e-09
-2.33047e-09
-2.3623e-09
-2.39637e-09
-2.43553e-09
-2.4834e-09
-2.5427e-09
-2.6188e-09
-2.71897e-09
-2.85383e-09
-3.03604e-09
-3.28683e-09
-3.63094e-09
-4.09633e-09
-4.75534e-09
-5.37053e-09
-6.72634e-09
-7.77164e-09
-7.80952e-10
-1.65089e-09
-8.77319e-10
-8.06581e-10
-8.33508e-10
-8.71216e-10
-9.09353e-10
-9.47111e-10
-9.83533e-10
-1.01817e-09
-1.05211e-09
-1.08504e-09
-1.11633e-09
-1.14502e-09
-1.17119e-09
-1.19535e-09
-1.21947e-09
-1.24298e-09
-1.26582e-09
-1.28895e-09
-1.31065e-09
-1.33392e-09
-1.35592e-09
-1.37832e-09
-1.40083e-09
-1.42205e-09
-1.44502e-09
-1.46589e-09
-1.48918e-09
-1.51039e-09
-1.53276e-09
-1.55469e-09
-1.57719e-09
-1.59901e-09
-1.62085e-09
-1.64219e-09
-1.66439e-09
-1.68618e-09
-1.70875e-09
-1.73094e-09
-1.75315e-09
-1.77533e-09
-1.79763e-09
-1.81866e-09
-1.8399e-09
-1.86271e-09
-1.88557e-09
-1.90691e-09
-1.92937e-09
-1.95118e-09
-1.97229e-09
-1.99498e-09
-2.0159e-09
-2.03903e-09
-2.05975e-09
-2.08201e-09
-2.10294e-09
-2.12442e-09
-2.14603e-09
-2.16797e-09
-2.18977e-09
-2.21159e-09
-2.2332e-09
-2.25538e-09
-2.27839e-09
-2.30359e-09
-2.33156e-09
-2.36254e-09
-2.39739e-09
-2.43776e-09
-2.48628e-09
-2.54677e-09
-2.6242e-09
-2.72608e-09
-2.86287e-09
-3.04819e-09
-3.30257e-09
-3.65027e-09
-4.12132e-09
-4.68996e-09
-4.77197e-09
-6.70223e-09
-7.83962e-09
-6.96883e-10
-3.34541e-10
-7.23288e-10
-8.00278e-10
-8.33842e-10
-8.70431e-10
-9.08436e-10
-9.45992e-10
-9.82593e-10
-1.01755e-09
-1.05156e-09
-1.085e-09
-1.11647e-09
-1.14519e-09
-1.17125e-09
-1.19615e-09
-1.22036e-09
-1.24293e-09
-1.26649e-09
-1.28915e-09
-1.31062e-09
-1.33399e-09
-1.35587e-09
-1.37852e-09
-1.40053e-09
-1.42249e-09
-1.44497e-09
-1.46682e-09
-1.48881e-09
-1.51078e-09
-1.53282e-09
-1.55467e-09
-1.57689e-09
-1.59871e-09
-1.61975e-09
-1.64172e-09
-1.66392e-09
-1.68565e-09
-1.70836e-09
-1.7306e-09
-1.75273e-09
-1.77491e-09
-1.79719e-09
-1.81794e-09
-1.83929e-09
-1.86201e-09
-1.88492e-09
-1.90671e-09
-1.92912e-09
-1.95082e-09
-1.97251e-09
-1.99495e-09
-2.01675e-09
-2.03866e-09
-2.05996e-09
-2.0817e-09
-2.10335e-09
-2.12514e-09
-2.14625e-09
-2.16856e-09
-2.18995e-09
-2.21193e-09
-2.23367e-09
-2.2564e-09
-2.28045e-09
-2.30493e-09
-2.33308e-09
-2.36371e-09
-2.39921e-09
-2.44026e-09
-2.4892e-09
-2.55034e-09
-2.62881e-09
-2.73211e-09
-2.8704e-09
-3.05799e-09
-3.31488e-09
-3.66591e-09
-4.14528e-09
-4.85554e-09
-6.07829e-09
-6.87161e-09
-7.89996e-09
-7.41553e-10
-1.0571e-09
-8.07647e-10
-8.0256e-10
-8.33532e-10
-8.70003e-10
-9.08001e-10
-9.45613e-10
-9.82149e-10
-1.01717e-09
-1.05123e-09
-1.08473e-09
-1.11641e-09
-1.14509e-09
-1.17095e-09
-1.19593e-09
-1.22028e-09
-1.24288e-09
-1.26584e-09
-1.28905e-09
-1.3106e-09
-1.33381e-09
-1.35555e-09
-1.37839e-09
-1.40033e-09
-1.42254e-09
-1.44442e-09
-1.46637e-09
-1.48867e-09
-1.51063e-09
-1.53251e-09
-1.55434e-09
-1.57642e-09
-1.59818e-09
-1.61928e-09
-1.6415e-09
-1.66386e-09
-1.68551e-09
-1.70823e-09
-1.73053e-09
-1.75265e-09
-1.77481e-09
-1.79695e-09
-1.81771e-09
-1.83903e-09
-1.86176e-09
-1.88433e-09
-1.90617e-09
-1.92878e-09
-1.95083e-09
-1.97238e-09
-1.99455e-09
-2.01657e-09
-2.03857e-09
-2.05997e-09
-2.08151e-09
-2.10345e-09
-2.12485e-09
-2.14662e-09
-2.16834e-09
-2.19026e-09
-2.21195e-09
-2.23378e-09
-2.25716e-09
-2.28093e-09
-2.30596e-09
-2.33395e-09
-2.36497e-09
-2.40081e-09
-2.44237e-09
-2.49156e-09
-2.55339e-09
-2.63256e-09
-2.73679e-09
-2.87634e-09
-3.06548e-09
-3.32383e-09
-3.677e-09
-4.15722e-09
-4.77896e-09
-5.34371e-09
-6.83121e-09
-7.93886e-09
-7.49628e-10
-1.11706e-09
-8.1301e-10
-8.02661e-10
-8.33492e-10
-8.7002e-10
-9.07991e-10
-9.45602e-10
-9.82172e-10
-1.01715e-09
-1.05121e-09
-1.08474e-09
-1.11636e-09
-1.14515e-09
-1.17095e-09
-1.19581e-09
-1.21993e-09
-1.24288e-09
-1.26575e-09
-1.28905e-09
-1.31064e-09
-1.33379e-09
-1.35561e-09
-1.37831e-09
-1.40031e-09
-1.42257e-09
-1.44424e-09
-1.46649e-09
-1.4886e-09
-1.51075e-09
-1.53263e-09
-1.55438e-09
-1.57626e-09
-1.59825e-09
-1.6192e-09
-1.64132e-09
-1.66396e-09
-1.68538e-09
-1.70818e-09
-1.73045e-09
-1.7527e-09
-1.77465e-09
-1.79687e-09
-1.81772e-09
-1.8391e-09
-1.86185e-09
-1.88423e-09
-1.90615e-09
-1.92883e-09
-1.95083e-09
-1.97267e-09
-1.99445e-09
-2.01671e-09
-2.03853e-09
-2.06002e-09
-2.08145e-09
-2.10352e-09
-2.12481e-09
-2.1468e-09
-2.16864e-09
-2.19046e-09
-2.21232e-09
-2.23428e-09
-2.25768e-09
-2.28157e-09
-2.30695e-09
-2.33472e-09
-2.36613e-09
-2.40234e-09
-2.4442e-09
-2.49384e-09
-2.55598e-09
-2.63567e-09
-2.74043e-09
-2.88054e-09
-3.0703e-09
-3.32922e-09
-3.68302e-09
-4.16401e-09
-4.79043e-09
-5.4088e-09
-6.84834e-09
-7.95479e-09
-6.87162e-10
-3.72397e-10
-7.18898e-10
-8.00787e-10
-8.33685e-10
-8.70547e-10
-9.08432e-10
-9.46025e-10
-9.8252e-10
-1.01745e-09
-1.05165e-09
-1.08496e-09
-1.11647e-09
-1.14525e-09
-1.17106e-09
-1.19604e-09
-1.21951e-09
-1.24284e-09
-1.26594e-09
-1.28897e-09
-1.31085e-09
-1.3338e-09
-1.35594e-09
-1.37815e-09
-1.40024e-09
-1.42267e-09
-1.44463e-09
-1.46664e-09
-1.48868e-09
-1.51072e-09
-1.53298e-09
-1.55442e-09
-1.57669e-09
-1.5985e-09
-1.61948e-09
-1.64142e-09
-1.66414e-09
-1.68537e-09
-1.70796e-09
-1.73021e-09
-1.75258e-09
-1.77468e-09
-1.79672e-09
-1.81791e-09
-1.8393e-09
-1.86223e-09
-1.88459e-09
-1.9066e-09
-1.92938e-09
-1.95106e-09
-1.97311e-09
-1.99464e-09
-2.01701e-09
-2.03887e-09
-2.06056e-09
-2.08186e-09
-2.10364e-09
-2.12507e-09
-2.14734e-09
-2.16923e-09
-2.19088e-09
-2.21291e-09
-2.23507e-09
-2.25828e-09
-2.28214e-09
-2.3079e-09
-2.33618e-09
-2.36706e-09
-2.40379e-09
-2.44565e-09
-2.4958e-09
-2.55814e-09
-2.6381e-09
-2.74298e-09
-2.88297e-09
-3.07243e-09
-3.3309e-09
-3.684e-09
-4.16572e-09
-4.87719e-09
-6.12903e-09
-6.88452e-09
-7.94263e-09
-7.99955e-10
-1.63131e-09
-8.59316e-10
-8.05352e-10
-8.33943e-10
-8.71121e-10
-9.09329e-10
-9.47135e-10
-9.83507e-10
-1.01815e-09
-1.05203e-09
-1.08507e-09
-1.11626e-09
-1.14508e-09
-1.17081e-09
-1.19598e-09
-1.2194e-09
-1.24265e-09
-1.26567e-09
-1.28894e-09
-1.31098e-09
-1.33356e-09
-1.35602e-09
-1.37793e-09
-1.40043e-09
-1.42239e-09
-1.44454e-09
-1.46648e-09
-1.48865e-09
-1.51025e-09
-1.53245e-09
-1.55431e-09
-1.57672e-09
-1.59861e-09
-1.62027e-09
-1.64193e-09
-1.66494e-09
-1.68572e-09
-1.70804e-09
-1.7304e-09
-1.75286e-09
-1.77501e-09