/*--------------------------------*- C++ -*----------------------------------*\
| =========                 |                                                 |
| \\      /  F ield         | OpenFOAM: The Open Source CFD Toolbox           |
|  \\    /   O peration     | Version:  v1906                                 |
|   \\  /    A nd           | Web:      www.OpenFOAM.com                      |
|    \\/     M anipulation  |                                                 |
\*---------------------------------------------------------------------------*/
FoamFile
{
    version     2.0;
    format      ascii;
    class       volScalarField;
    location    "19.5";
    object      p;
}
// * * * * * * * * * * * * * * * * * * * * * * * * * * * * * * * * * * * * * //

dimensions      [0 2 -2 0 0 0 0];


internalField   nonuniform List<scalar> 
243374
(
2.05108e-17
-3.97975e-11
-5.93255e-11
-8.23072e-11
-1.04981e-10
-1.27329e-10
-1.49561e-10
-1.71658e-10
-1.9373e-10
-2.15756e-10
-2.37759e-10
-2.59774e-10
-2.8179e-10
-3.03771e-10
-3.25781e-10
-3.47753e-10
-3.69789e-10
-3.91798e-10
-4.13808e-10
-4.35821e-10
-4.57856e-10
-4.7984e-10
-5.01837e-10
-5.2387e-10
-5.45875e-10
-5.67883e-10
-5.89896e-10
-6.11912e-10
-6.33915e-10
-6.55936e-10
-6.77947e-10
-6.99955e-10
-7.21964e-10
-7.4398e-10
-7.66006e-10
-7.88005e-10
-8.10001e-10
-8.32022e-10
-8.54051e-10
-8.76044e-10
-8.9805e-10
-9.20088e-10
-9.42083e-10
-9.64102e-10
-9.86108e-10
-1.00813e-09
-1.03014e-09
-1.05216e-09
-1.07418e-09
-1.09621e-09
-1.11824e-09
-1.14025e-09
-1.16229e-09
-1.1843e-09
-1.20637e-09
-1.22842e-09
-1.25049e-09
-1.27257e-09
-1.29468e-09
-1.31683e-09
-1.33903e-09
-1.36128e-09
-1.38362e-09
-1.40607e-09
-1.42868e-09
-1.45151e-09
-1.47465e-09
-1.4982e-09
-1.52233e-09
-1.54726e-09
-1.57334e-09
-1.60088e-09
-1.63059e-09
-1.66316e-09
-1.69968e-09
-1.74155e-09
-1.79051e-09
-1.84859e-09
-1.91298e-09
-2.01903e-09
-1.41436e-11
-4.0354e-11
-5.96973e-11
-8.24844e-11
-1.05076e-10
-1.27398e-10
-1.49605e-10
-1.71707e-10
-1.93744e-10
-2.15776e-10
-2.37798e-10
-2.59793e-10
-2.81783e-10
-3.03786e-10
-3.25783e-10
-3.4781e-10
-3.69801e-10
-3.91803e-10
-4.13838e-10
-4.35826e-10
-4.57838e-10
-4.79879e-10
-5.01866e-10
-5.23862e-10
-5.45895e-10
-5.67907e-10
-5.89913e-10
-6.11919e-10
-6.33929e-10
-6.55937e-10
-6.77959e-10
-6.9997e-10
-7.21983e-10
-7.43993e-10
-7.66007e-10
-7.88013e-10
-8.10027e-10
-8.32033e-10
-8.54054e-10
-8.76065e-10
-8.98073e-10
-9.2009e-10
-9.421e-10
-9.64118e-10
-9.86114e-10
-1.00814e-09
-1.03017e-09
-1.05217e-09
-1.0742e-09
-1.09623e-09
-1.11823e-09
-1.14026e-09
-1.16229e-09
-1.18435e-09
-1.20637e-09
-1.22845e-09
-1.2505e-09
-1.27258e-09
-1.29468e-09
-1.31684e-09
-1.33902e-09
-1.36127e-09
-1.38362e-09
-1.40609e-09
-1.42867e-09
-1.45151e-09
-1.47468e-09
-1.49822e-09
-1.52238e-09
-1.54736e-09
-1.57344e-09
-1.60109e-09
-1.63091e-09
-1.66366e-09
-1.70036e-09
-1.74245e-09
-1.79166e-09
-1.85012e-09
-1.91596e-09
-2.00714e-09
-3.03508e-11
-4.04991e-11
-5.99193e-11
-8.25772e-11
-1.05117e-10
-1.27407e-10
-1.49581e-10
-1.71692e-10
-1.93758e-10
-2.15773e-10
-2.37767e-10
-2.59783e-10
-2.8178e-10
-3.03777e-10
-3.25775e-10
-3.47767e-10
-3.69785e-10
-3.91798e-10
-4.13791e-10
-4.35825e-10
-4.57846e-10
-4.79811e-10
-5.0184e-10
-5.23881e-10
-5.45875e-10
-5.67884e-10
-5.89902e-10
-6.11901e-10
-6.33917e-10
-6.5593e-10
-6.77933e-10
-6.99953e-10
-7.21976e-10
-7.43989e-10
-7.65994e-10
-7.87999e-10
-8.10008e-10
-8.32023e-10
-8.54052e-10
-8.76042e-10
-8.98069e-10
-9.20085e-10
-9.42082e-10
-9.64094e-10
-9.8612e-10
-1.00812e-09
-1.03014e-09
-1.05218e-09
-1.07417e-09
-1.09618e-09
-1.11823e-09
-1.14025e-09
-1.16229e-09
-1.1843e-09
-1.20635e-09
-1.22838e-09
-1.25048e-09
-1.27255e-09
-1.29465e-09
-1.31681e-09
-1.339e-09
-1.36124e-09
-1.38359e-09
-1.40601e-09
-1.42863e-09
-1.45148e-09
-1.47458e-09
-1.49819e-09
-1.52234e-09
-1.54731e-09
-1.57344e-09
-1.60116e-09
-1.63099e-09
-1.66387e-09
-1.70073e-09
-1.743e-09
-1.79246e-09
-1.85105e-09
-1.91759e-09
-1.99252e-09
1.29181e-10
-1.96636e-11
-3.78598e-11
-5.99465e-11
-8.26244e-11
-1.05151e-10
-1.27414e-10
-1.49668e-10
-1.71709e-10
-1.9373e-10
-2.15773e-10
-2.3782e-10
-2.59779e-10
-2.81813e-10
-3.03775e-10
-3.2578e-10
-3.47778e-10
-3.69798e-10
-3.91788e-10
-4.13853e-10
-4.35841e-10
-4.57827e-10
-4.79883e-10
-5.01852e-10
-5.23828e-10
-5.45877e-10
-5.67889e-10
-5.89914e-10
-6.11926e-10
-6.33921e-10
-6.55957e-10
-6.77973e-10
-6.99956e-10
-7.2195e-10
-7.43976e-10
-7.66027e-10
-7.87995e-10
-8.10027e-10
-8.32023e-10
-8.54027e-10
-8.76044e-10
-8.98069e-10
-9.20077e-10
-9.42082e-10
-9.64139e-10
-9.86088e-10
-1.00815e-09
-1.03016e-09
-1.05212e-09
-1.0742e-09
-1.09624e-09
-1.11822e-09
-1.14023e-09
-1.16224e-09
-1.18432e-09
-1.20635e-09
-1.22847e-09
-1.25048e-09
-1.27257e-09
-1.29468e-09
-1.31677e-09
-1.33897e-09
-1.36122e-09
-1.38353e-09
-1.40603e-09
-1.4286e-09
-1.45142e-09
-1.47461e-09
-1.49812e-09
-1.52231e-09
-1.5473e-09
-1.57344e-09
-1.60117e-09
-1.63113e-09
-1.66402e-09
-1.70099e-09
-1.74339e-09
-1.79304e-09
-1.85194e-09
-1.92178e-09
-2.00183e-09
-2.09973e-09
1.17079e-10
-2.88681e-11
-3.89302e-11
-5.99862e-11
-8.26618e-11
-1.0517e-10
-1.27432e-10
-1.49578e-10
-1.71731e-10
-1.93769e-10
-2.15771e-10
-2.37794e-10
-2.59775e-10
-2.81754e-10
-3.03804e-10
-3.25777e-10
-3.47825e-10
-3.69759e-10
-3.9182e-10
-4.13772e-10
-4.35785e-10
-4.5781e-10
-4.79806e-10
-5.01849e-10
-5.23907e-10
-5.4588e-10
-5.679e-10
-5.89894e-10
-6.11895e-10
-6.33919e-10
-6.55899e-10
-6.7794e-10
-6.99951e-10
-7.2197e-10
-7.44005e-10
-7.65979e-10
-7.88005e-10
-8.10008e-10
-8.32011e-10
-8.54029e-10
-8.76046e-10
-8.98061e-10
-9.20068e-10
-9.42077e-10
-9.64092e-10
-9.86122e-10
-1.00813e-09
-1.03009e-09
-1.0522e-09
-1.07417e-09
-1.09616e-09
-1.11823e-09
-1.14027e-09
-1.1623e-09
-1.18432e-09
-1.20633e-09
-1.22834e-09
-1.25046e-09
-1.27249e-09
-1.29461e-09
-1.31683e-09
-1.33894e-09
-1.36121e-09
-1.38354e-09
-1.40594e-09
-1.42852e-09
-1.4514e-09
-1.47446e-09
-1.49809e-09
-1.52224e-09
-1.54722e-09
-1.57336e-09
-1.60114e-09
-1.63103e-09
-1.66406e-09
-1.70109e-09
-1.74357e-09
-1.79333e-09
-1.85243e-09
-1.92152e-09
-1.99545e-09
-2.11164e-09
-2.2932e-09
1.11871e-10
-1.90813e-11
-3.71937e-11
-5.99017e-11
-8.26867e-11
-1.05143e-10
-1.2744e-10
-1.49692e-10
-1.71706e-10
-1.93751e-10
-2.15772e-10
-2.3779e-10
-2.59808e-10
-2.81803e-10
-3.03752e-10
-3.25811e-10
-3.47719e-10
-3.69821e-10
-3.91769e-10
-4.13826e-10
-4.35859e-10
-4.57854e-10
-4.79876e-10
-5.01851e-10
-5.23805e-10
-5.45888e-10
-5.6786e-10
-5.89894e-10
-6.1192e-10
-6.33905e-10
-6.55942e-10
-6.77954e-10
-6.99983e-10
-7.21971e-10
-7.43965e-10
-7.65989e-10
-7.87981e-10
-8.10002e-10
-8.32016e-10
-8.54029e-10
-8.76033e-10
-8.98063e-10
-9.20067e-10
-9.42083e-10
-9.64093e-10
-9.86106e-10
-1.00812e-09
-1.03017e-09
-1.0521e-09
-1.07419e-09
-1.09623e-09
-1.11823e-09
-1.1402e-09
-1.16223e-09
-1.18429e-09
-1.20634e-09
-1.22841e-09
-1.25045e-09
-1.27254e-09
-1.29465e-09
-1.3167e-09
-1.33897e-09
-1.36113e-09
-1.38346e-09
-1.40592e-09
-1.42851e-09
-1.4513e-09
-1.47446e-09
-1.49798e-09
-1.52215e-09
-1.54712e-09
-1.57324e-09
-1.60101e-09
-1.63098e-09
-1.66391e-09
-1.70096e-09
-1.74352e-09
-1.79335e-09
-1.85259e-09
-1.9235e-09
-2.00476e-09
-2.11838e-09
-2.28981e-09
1.06969e-10
-2.46818e-11
-3.79524e-11
-5.99581e-11
-8.26723e-11
-1.05201e-10
-1.2744e-10
-1.4961e-10
-1.71733e-10
-1.93726e-10
-2.15828e-10
-2.37791e-10
-2.59728e-10
-2.81805e-10
-3.03809e-10
-3.25745e-10
-3.47811e-10
-3.69774e-10
-3.91842e-10
-4.1382e-10
-4.35782e-10
-4.57795e-10
-4.79802e-10
-5.0185e-10
-5.23882e-10
-5.45887e-10
-5.67903e-10
-5.89894e-10
-6.11911e-10
-6.33927e-10
-6.55919e-10
-6.77932e-10
-6.99903e-10
-7.21959e-10
-7.43986e-10
-7.66001e-10
-7.87984e-10
-8.1e-10
-8.32012e-10
-8.54012e-10
-8.76035e-10
-8.98033e-10
-9.20064e-10
-9.42054e-10
-9.64092e-10
-9.86095e-10
-1.00812e-09
-1.0301e-09
-1.05221e-09
-1.0742e-09
-1.09618e-09
-1.11817e-09
-1.14024e-09
-1.16228e-09
-1.18431e-09
-1.20631e-09
-1.22837e-09
-1.25046e-09
-1.27248e-09
-1.29457e-09
-1.31678e-09
-1.33888e-09
-1.36115e-09
-1.38344e-09
-1.40587e-09
-1.42842e-09
-1.45126e-09
-1.47434e-09
-1.49791e-09
-1.52202e-09
-1.547e-09
-1.57305e-09
-1.60081e-09
-1.63072e-09
-1.66369e-09
-1.70075e-09
-1.74325e-09
-1.79306e-09
-1.85232e-09
-1.92265e-09
-1.99993e-09
-2.11923e-09
-2.28784e-09
1.04877e-10
-2.46532e-11
-3.79414e-11
-5.99412e-11
-8.26738e-11
-1.05151e-10
-1.27462e-10
-1.49634e-10
-1.71726e-10
-1.93796e-10
-2.15738e-10
-2.37795e-10
-2.59827e-10
-2.81742e-10
-3.03773e-10
-3.25798e-10
-3.47717e-10
-3.69779e-10
-3.91771e-10
-4.13785e-10
-4.35854e-10
-4.57859e-10
-4.79877e-10
-5.01842e-10
-5.23841e-10
-5.45837e-10
-5.67863e-10
-5.89901e-10
-6.11891e-10
-6.33892e-10
-6.55934e-10
-6.7794e-10
-6.99983e-10
-7.21977e-10
-7.4392e-10
-7.65993e-10
-7.87985e-10
-8.10002e-10
-8.32026e-10
-8.54029e-10
-8.76038e-10
-8.98058e-10
-9.20061e-10
-9.42083e-10
-9.64092e-10
-9.86089e-10
-1.00814e-09
-1.03015e-09
-1.05209e-09
-1.07415e-09
-1.09621e-09
-1.11822e-09
-1.14022e-09
-1.16223e-09
-1.18427e-09
-1.20634e-09
-1.22836e-09
-1.25039e-09
-1.2725e-09
-1.29459e-09
-1.31666e-09
-1.33888e-09
-1.36108e-09
-1.38341e-09
-1.40583e-09
-1.42838e-09
-1.45115e-09
-1.47425e-09
-1.49774e-09
-1.52189e-09
-1.54677e-09
-1.57292e-09
-1.60054e-09
-1.63044e-09
-1.66332e-09
-1.70029e-09
-1.74275e-09
-1.79249e-09
-1.85167e-09
-1.92183e-09
-1.99911e-09
-2.11864e-09
-2.28681e-09
1.05538e-10
-1.94132e-11
-3.72591e-11
-5.99243e-11
-8.26733e-11
-1.05188e-10
-1.27416e-10
-1.49656e-10
-1.71715e-10
-1.937e-10
-2.15829e-10
-2.37796e-10
-2.5973e-10
-2.81839e-10
-3.03772e-10
-3.25791e-10
-3.47768e-10
-3.69809e-10
-3.91847e-10
-4.13834e-10
-4.35792e-10
-4.57813e-10
-4.79814e-10
-5.01848e-10
-5.23838e-10
-5.45882e-10
-5.67898e-10
-5.89881e-10
-6.11936e-10
-6.3394e-10
-6.55926e-10
-6.77934e-10
-6.99926e-10
-7.21923e-10
-7.44042e-10
-7.65981e-10
-7.87992e-10
-8.10001e-10
-8.32023e-10
-8.54002e-10
-8.76045e-10
-8.98051e-10
-9.20062e-10
-9.42078e-10
-9.64092e-10
-9.86112e-10
-1.00811e-09
-1.03013e-09
-1.05218e-09
-1.07422e-09
-1.09618e-09
-1.11819e-09
-1.14021e-09
-1.16226e-09
-1.18428e-09
-1.2063e-09
-1.22836e-09
-1.25042e-09
-1.27247e-09
-1.29456e-09
-1.31673e-09
-1.33885e-09
-1.36108e-09
-1.38335e-09
-1.40573e-09
-1.42829e-09
-1.45109e-09
-1.47416e-09
-1.49768e-09
-1.52169e-09
-1.5466e-09
-1.57261e-09
-1.60025e-09
-1.63001e-09
-1.66281e-09
-1.6997e-09
-1.74202e-09
-1.7916e-09
-1.85062e-09
-1.9213e-09
-2.00285e-09
-2.11678e-09
-2.28639e-09
1.09217e-10
-2.86536e-11
-3.89146e-11
-5.99969e-11
-8.26584e-11
-1.05131e-10
-1.27474e-10
-1.49564e-10
-1.71725e-10
-1.93774e-10
-2.15733e-10
-2.37804e-10
-2.59835e-10
-2.81707e-10
-3.03789e-10
-3.25766e-10
-3.4777e-10
-3.69741e-10
-3.91767e-10
-4.13782e-10
-4.35839e-10
-4.57819e-10
-4.79862e-10
-5.01844e-10
-5.23859e-10
-5.45868e-10
-5.67852e-10
-5.89898e-10
-6.1187e-10
-6.33892e-10
-6.5593e-10
-6.7793e-10
-6.99946e-10
-7.22001e-10
-7.43913e-10
-7.65972e-10
-7.88017e-10
-8.1e-10
-8.32031e-10
-8.54028e-10
-8.76044e-10
-8.98052e-10
-9.20066e-10
-9.42082e-10
-9.64097e-10
-9.8611e-10
-1.00813e-09
-1.03013e-09
-1.05214e-09
-1.07412e-09
-1.0962e-09
-1.11819e-09
-1.14016e-09
-1.16223e-09
-1.18425e-09
-1.20632e-09
-1.22833e-09
-1.25038e-09
-1.27247e-09
-1.29453e-09
-1.31662e-09
-1.3388e-09
-1.361e-09
-1.38331e-09
-1.40572e-09
-1.42825e-09
-1.45098e-09
-1.47399e-09
-1.49747e-09
-1.5215e-09
-1.54636e-09
-1.57232e-09
-1.59983e-09
-1.62952e-09
-1.6622e-09
-1.69888e-09
-1.74107e-09
-1.79045e-09
-1.84916e-09
-1.91812e-09
-1.99128e-09
-2.1116e-09
-2.28731e-09
1.21752e-10
-1.98116e-11
-3.79135e-11
-5.99302e-11
-8.26262e-11
-1.0515e-10
-1.27426e-10
-1.49602e-10
-1.71719e-10
-1.93734e-10
-2.15811e-10
-2.37781e-10
-2.59739e-10
-2.81829e-10
-3.0377e-10
-3.25801e-10
-3.47764e-10
-3.69825e-10
-3.91846e-10
-4.13841e-10
-4.35806e-10
-4.57831e-10
-4.79828e-10
-5.01846e-10
-5.2386e-10
-5.45862e-10
-5.6792e-10
-5.8989e-10
-6.11935e-10
-6.33926e-10
-6.55929e-10
-6.77941e-10
-6.99986e-10
-7.21913e-10
-7.44023e-10
-7.6602e-10
-7.87972e-10
-8.10016e-10
-8.3204e-10
-8.54026e-10
-8.7606e-10
-8.98053e-10
-9.20096e-10
-9.42082e-10
-9.64126e-10
-9.86103e-10
-1.00813e-09
-1.03015e-09
-1.05214e-09
-1.0742e-09
-1.09617e-09
-1.11821e-09
-1.14026e-09
-1.16223e-09
-1.18426e-09
-1.20629e-09
-1.22836e-09
-1.25038e-09
-1.27245e-09
-1.29454e-09
-1.31667e-09
-1.33879e-09
-1.361e-09
-1.38325e-09
-1.40566e-09
-1.42816e-09
-1.45089e-09
-1.47393e-09
-1.4973e-09
-1.52136e-09
-1.54608e-09
-1.57195e-09
-1.5994e-09
-1.62894e-09
-1.66147e-09
-1.69799e-09
-1.73992e-09
-1.78903e-09
-1.8474e-09
-1.9167e-09
-1.99659e-09
-2.10012e-09
-2.29089e-09
1.43595e-10
-3.03781e-11
-4.04627e-11
-5.99276e-11
-8.25656e-11
-1.05097e-10
-1.2741e-10
-1.49582e-10
-1.7169e-10
-1.93739e-10
-2.15745e-10
-2.37789e-10
-2.5979e-10
-2.81717e-10
-3.03773e-10
-3.25764e-10
-3.47765e-10
-3.69765e-10
-3.91764e-10
-4.13782e-10
-4.35815e-10
-4.57818e-10
-4.79832e-10
-5.01849e-10
-5.23853e-10
-5.45876e-10
-5.67855e-10
-5.89888e-10
-6.11897e-10
-6.33915e-10
-6.55918e-10
-6.77927e-10
-6.99929e-10
-7.21988e-10
-7.43947e-10
-7.6596e-10
-7.88016e-10
-8.10012e-10
-8.32019e-10
-8.54043e-10
-8.76054e-10
-8.98053e-10
-9.20078e-10
-9.42083e-10
-9.6409e-10
-9.86113e-10
-1.00812e-09
-1.03011e-09
-1.05214e-09
-1.07415e-09
-1.09618e-09
-1.11818e-09
-1.14017e-09
-1.16223e-09
-1.18425e-09
-1.20629e-09
-1.2283e-09
-1.25037e-09
-1.27243e-09
-1.2945e-09
-1.31659e-09
-1.33874e-09
-1.36093e-09
-1.3832e-09
-1.40556e-09
-1.42807e-09
-1.45078e-09
-1.47375e-09
-1.49713e-09
-1.52102e-09
-1.54578e-09
-1.5716e-09
-1.59887e-09
-1.62829e-09
-1.6606e-09
-1.69693e-09
-1.73857e-09
-1.78735e-09
-1.84527e-09
-1.91118e-09
-1.98555e-09
-2.086e-09
-1.40771e-11
-4.03313e-11
-5.96865e-11
-8.2469e-11
-1.05072e-10
-1.27397e-10
-1.49578e-10
-1.71689e-10
-1.93742e-10
-2.15774e-10
-2.37775e-10
-2.59766e-10
-2.81808e-10
-3.03769e-10
-3.25784e-10
-3.47787e-10
-3.69793e-10
-3.91815e-10
-4.13832e-10
-4.35826e-10
-4.57834e-10
-4.79847e-10
-5.01844e-10
-5.23873e-10
-5.45867e-10
-5.67911e-10
-5.89901e-10
-6.11906e-10
-6.3393e-10
-6.55949e-10
-6.77939e-10
-6.99965e-10
-7.21948e-10
-7.43995e-10
-7.66011e-10
-7.87995e-10
-8.10018e-10
-8.32044e-10
-8.54043e-10
-8.76061e-10
-8.9808e-10
-9.2009e-10
-9.42093e-10
-9.64119e-10
-9.86112e-10
-1.00813e-09
-1.03015e-09
-1.05215e-09
-1.07417e-09
-1.09617e-09
-1.11821e-09
-1.14025e-09
-1.16223e-09
-1.18425e-09
-1.20628e-09
-1.22833e-09
-1.25037e-09
-1.27241e-09
-1.2945e-09
-1.31659e-09
-1.33873e-09
-1.3609e-09
-1.38316e-09
-1.40553e-09
-1.42801e-09
-1.45067e-09
-1.47364e-09
-1.49694e-09
-1.52086e-09
-1.54547e-09
-1.57121e-09
-1.59837e-09
-1.62772e-09
-1.65978e-09
-1.6958e-09
-1.73711e-09
-1.78551e-09
-1.84317e-09
-1.90825e-09
-1.99868e-09
1.01826e-13
-3.9773e-11
-5.9324e-11
-8.22892e-11
-1.04962e-10
-1.27324e-10
-1.49535e-10
-1.71655e-10
-1.93715e-10
-2.15744e-10
-2.37769e-10
-2.59774e-10
-2.81729e-10
-3.03758e-10
-3.25781e-10
-3.47753e-10
-3.69781e-10
-3.91781e-10
-4.13789e-10
-4.35804e-10
-4.57823e-10
-4.79822e-10
-5.01858e-10
-5.23852e-10
-5.45866e-10
-5.67869e-10
-5.89882e-10
-6.11909e-10
-6.33907e-10
-6.55893e-10
-6.77942e-10
-6.99935e-10
-7.21954e-10
-7.43975e-10
-7.65975e-10
-7.87992e-10
-8.1002e-10
-8.3201e-10
-8.54041e-10
-8.76049e-10
-8.98052e-10
-9.20079e-10
-9.42071e-10
-9.64087e-10
-9.86105e-10
-1.00812e-09
-1.03012e-09
-1.05214e-09
-1.07416e-09
-1.09618e-09
-1.11818e-09
-1.14018e-09
-1.16223e-09
-1.18424e-09
-1.20628e-09
-1.22829e-09
-1.25032e-09
-1.27239e-09
-1.29446e-09
-1.31657e-09
-1.33868e-09
-1.36085e-09
-1.38309e-09
-1.40543e-09
-1.42788e-09
-1.45052e-09
-1.47344e-09
-1.49676e-09
-1.52054e-09
-1.54512e-09
-1.57067e-09
-1.59776e-09
-1.62675e-09
-1.65844e-09
-1.69431e-09
-1.73531e-09
-1.78333e-09
-1.84046e-09
-1.90394e-09
-2.00931e-09
-1.51916e-11
-3.2012e-11
-5.72632e-11
-8.14791e-11
-1.0455e-10
-1.2711e-10
-1.4941e-10
-1.71552e-10
-1.9366e-10
-2.15713e-10
-2.37739e-10
-2.59758e-10
-2.81763e-10
-3.03777e-10
-3.25764e-10
-3.47774e-10
-3.6979e-10
-3.918e-10
-4.13809e-10
-4.35815e-10
-4.57841e-10
-4.79844e-10
-5.01829e-10
-5.23867e-10
-5.45874e-10
-5.67896e-10
-5.89905e-10
-6.11912e-10
-6.33912e-10
-6.55943e-10
-6.77945e-10
-6.99955e-10
-7.21955e-10
-7.43984e-10
-7.65998e-10
-7.88002e-10
-8.10012e-10
-8.32016e-10
-8.54036e-10
-8.7606e-10
-8.98057e-10
-9.20066e-10
-9.42094e-10
-9.64089e-10
-9.8613e-10
-1.00813e-09
-1.03016e-09
-1.05217e-09
-1.07419e-09
-1.09622e-09
-1.11824e-09
-1.14027e-09
-1.1623e-09
-1.18433e-09
-1.20639e-09
-1.22845e-09
-1.25053e-09
-1.2726e-09
-1.29474e-09
-1.31689e-09
-1.33911e-09
-1.36135e-09
-1.38368e-09
-1.40612e-09
-1.42874e-09
-1.45153e-09
-1.47461e-09
-1.49808e-09
-1.52208e-09
-1.54679e-09
-1.57255e-09
-1.59959e-09
-1.6286e-09
-1.66019e-09
-1.69539e-09
-1.73552e-09
-1.78257e-09
-1.83928e-09
-1.90808e-09
-1.98513e-09
1.45686e-10
-2.38268e-11
-3.35579e-11
-5.78688e-11
-8.17385e-11
-1.04704e-10
-1.272e-10
-1.49471e-10
-1.71599e-10
-1.93686e-10
-2.15744e-10
-2.37749e-10
-2.59761e-10
-2.81783e-10
-3.03764e-10
-3.25789e-10
-3.478e-10
-3.69795e-10
-3.91801e-10
-4.13822e-10
-4.35832e-10
-4.57826e-10
-4.79846e-10
-5.01871e-10
-5.23883e-10
-5.45889e-10
-5.67894e-10
-5.89906e-10
-6.11922e-10
-6.33966e-10
-6.55943e-10
-6.77952e-10
-6.99971e-10
-7.21983e-10
-7.43994e-10
-7.65989e-10
-7.88009e-10
-8.10036e-10
-8.32034e-10
-8.54041e-10
-8.76067e-10
-8.98072e-10
-9.20081e-10
-9.42092e-10
-9.64108e-10
-9.86137e-10
-1.00816e-09
-1.03015e-09
-1.05218e-09
-1.07419e-09
-1.09624e-09
-1.11824e-09
-1.14027e-09
-1.1623e-09
-1.18436e-09
-1.2064e-09
-1.22845e-09
-1.25053e-09
-1.27265e-09
-1.29475e-09
-1.31689e-09
-1.33909e-09
-1.36134e-09
-1.38368e-09
-1.40615e-09
-1.42875e-09
-1.45157e-09
-1.47467e-09
-1.49817e-09
-1.52221e-09
-1.54701e-09
-1.57282e-09
-1.60005e-09
-1.62931e-09
-1.66112e-09
-1.69664e-09
-1.73718e-09
-1.78465e-09
-1.84174e-09
-1.91083e-09
-1.98095e-09
-2.05693e-09
1.31443e-10
-1.0382e-11
-3.42248e-11
-5.82998e-11
-8.1918e-11
-1.04781e-10
-1.2724e-10
-1.49467e-10
-1.71605e-10
-1.9369e-10
-2.1572e-10
-2.37781e-10
-2.59767e-10
-2.81742e-10
-3.03799e-10
-3.25774e-10
-3.47748e-10
-3.69792e-10
-3.91808e-10
-4.1381e-10
-4.35825e-10
-4.57845e-10
-4.7984e-10
-5.01839e-10
-5.23869e-10
-5.45873e-10
-5.67898e-10
-5.89902e-10
-6.11908e-10
-6.3389e-10
-6.55946e-10
-6.77953e-10
-6.99926e-10
-7.21971e-10
-7.43971e-10
-7.66022e-10
-7.88017e-10
-8.09974e-10
-8.32028e-10
-8.54046e-10
-8.76052e-10
-8.98049e-10
-9.20083e-10
-9.42101e-10
-9.64105e-10
-9.86112e-10
-1.00813e-09
-1.03016e-09
-1.05218e-09
-1.07422e-09
-1.09619e-09
-1.11824e-09
-1.14026e-09
-1.1623e-09
-1.18434e-09
-1.20637e-09
-1.22846e-09
-1.25052e-09
-1.27257e-09
-1.29471e-09
-1.31685e-09
-1.33909e-09
-1.36134e-09
-1.38367e-09
-1.4061e-09
-1.42874e-09
-1.45153e-09
-1.47468e-09
-1.49819e-09
-1.52224e-09
-1.54708e-09
-1.573e-09
-1.60039e-09
-1.62972e-09
-1.66183e-09
-1.69769e-09
-1.73866e-09
-1.78662e-09
-1.84412e-09
-1.91367e-09
-1.9983e-09
-2.06152e-09
-2.26275e-09
1.50885e-10
-1.35727e-11
-3.51742e-11
-5.87299e-11
-8.20953e-11
-1.04858e-10
-1.2729e-10
-1.49519e-10
-1.71626e-10
-1.93703e-10
-2.15739e-10
-2.37767e-10
-2.59766e-10
-2.81756e-10
-3.0376e-10
-3.258e-10
-3.47811e-10
-3.69789e-10
-3.91812e-10
-4.13827e-10
-4.35832e-10
-4.5779e-10
-4.79834e-10
-5.01896e-10
-5.23884e-10
-5.45883e-10
-5.67893e-10
-5.89888e-10
-6.11929e-10
-6.3397e-10
-6.55921e-10
-6.77956e-10
-6.99969e-10
-7.21989e-10
-7.43985e-10
-7.65972e-10
-7.8798e-10
-8.10056e-10
-8.32043e-10
-8.54005e-10
-8.76062e-10
-8.98073e-10
-9.20066e-10
-9.42099e-10
-9.6408e-10
-9.8614e-10
-1.00814e-09
-1.03017e-09
-1.05217e-09
-1.07417e-09
-1.09625e-09
-1.11824e-09
-1.14028e-09
-1.16228e-09
-1.18434e-09
-1.20637e-09
-1.22844e-09
-1.25051e-09
-1.27263e-09
-1.29474e-09
-1.31688e-09
-1.33903e-09
-1.3613e-09
-1.38367e-09
-1.40609e-09
-1.42875e-09
-1.45156e-09
-1.47465e-09
-1.49822e-09
-1.52229e-09
-1.54723e-09
-1.57314e-09
-1.60062e-09
-1.63016e-09
-1.66247e-09
-1.69861e-09
-1.73998e-09
-1.78838e-09
-1.84623e-09
-1.91587e-09
-1.99804e-09
-2.01551e-09
-2.27647e-09
1.12387e-10
-9.31725e-12
-3.56638e-11
-5.91078e-11
-8.22799e-11
-1.04952e-10
-1.27341e-10
-1.4957e-10
-1.71648e-10
-1.93737e-10
-2.15767e-10
-2.37794e-10
-2.59768e-10
-2.81794e-10
-3.038e-10
-3.25783e-10
-3.47743e-10
-3.69794e-10
-3.91819e-10
-4.1382e-10
-4.35822e-10
-4.57872e-10
-4.79845e-10
-5.01841e-10
-5.2389e-10
-5.4588e-10
-5.679e-10
-5.89898e-10
-6.11927e-10
-6.33916e-10
-6.55955e-10
-6.77948e-10
-6.99972e-10
-7.21963e-10
-7.43976e-10
-7.66012e-10
-7.88039e-10
-8.09997e-10
-8.32038e-10
-8.54061e-10
-8.76063e-10
-8.98045e-10
-9.20096e-10
-9.421e-10
-9.64106e-10
-9.86137e-10
-1.00814e-09
-1.03014e-09
-1.05218e-09
-1.0742e-09
-1.09621e-09
-1.11827e-09
-1.14025e-09
-1.1623e-09
-1.18432e-09
-1.2064e-09
-1.22844e-09
-1.2505e-09
-1.27258e-09
-1.29471e-09
-1.31683e-09
-1.33906e-09
-1.36131e-09
-1.38362e-09
-1.40613e-09
-1.42869e-09
-1.4515e-09
-1.47468e-09
-1.49819e-09
-1.52233e-09
-1.54723e-09
-1.57329e-09
-1.60079e-09
-1.63044e-09
-1.66295e-09
-1.69938e-09
-1.74106e-09
-1.78989e-09
-1.84809e-09
-1.91831e-09
-2.00506e-09
-2.05683e-09
-2.25979e-09
9.02374e-11
-1.32761e-11
-3.72461e-11
-5.96245e-11
-8.25121e-11
-1.05088e-10
-1.2747e-10
-1.49612e-10
-1.71738e-10
-1.93766e-10
-2.15793e-10
-2.37851e-10
-2.59819e-10
-2.81757e-10
-3.03814e-10
-3.25788e-10
-3.47844e-10
-3.69821e-10
-3.91827e-10
-4.13827e-10
-4.35858e-10
-4.57781e-10
-4.7989e-10
-5.01925e-10
-5.23861e-10
-5.45885e-10
-5.67918e-10
-5.89896e-10
-6.11954e-10
-6.33952e-10
-6.5596e-10
-6.77953e-10
-6.99994e-10
-7.22006e-10
-7.43991e-10
-7.65964e-10
-7.88041e-10
-8.10049e-10
-8.32067e-10
-8.54037e-10
-8.76108e-10
-8.981e-10
-9.20075e-10
-9.42134e-10
-9.64118e-10
-9.86155e-10
-1.00816e-09
-1.03018e-09
-1.05217e-09
-1.07422e-09
-1.0962e-09
-1.11824e-09
-1.14028e-09
-1.16229e-09
-1.18437e-09
-1.20636e-09
-1.22847e-09
-1.25052e-09
-1.2726e-09
-1.29471e-09
-1.31686e-09
-1.33902e-09
-1.36129e-09
-1.38361e-09
-1.40605e-09
-1.42872e-09
-1.45151e-09
-1.47468e-09
-1.4982e-09
-1.52234e-09
-1.54732e-09
-1.57334e-09
-1.60099e-09
-1.63074e-09
-1.66342e-09
-1.70002e-09
-1.74202e-09
-1.7911e-09
-1.84948e-09
-1.91908e-09
-2.00542e-09
-2.10239e-09
-2.25387e-09
8.04126e-11
-1.67153e-11
-3.81853e-11
-5.99224e-11
-8.26698e-11
-1.05165e-10
-1.27504e-10
-1.49635e-10
-1.71736e-10
-1.93785e-10
-2.15811e-10
-2.37792e-10
-2.59802e-10
-2.81816e-10
-3.03798e-10
-3.25805e-10
-3.47755e-10
-3.69802e-10
-3.91828e-10
-4.13803e-10
-4.35799e-10
-4.57863e-10
-4.79808e-10
-5.01842e-10
-5.23925e-10
-5.4587e-10
-5.67895e-10
-5.89918e-10
-6.11896e-10
-6.33946e-10
-6.55948e-10
-6.77951e-10
-6.99955e-10
-7.21964e-10
-7.43985e-10
-7.66009e-10
-7.88025e-10
-8.10035e-10
-8.3206e-10
-8.54036e-10
-8.76073e-10
-8.98088e-10
-9.20092e-10
-9.42121e-10
-9.64063e-10
-9.86137e-10
-1.00813e-09
-1.03017e-09
-1.05222e-09
-1.07418e-09
-1.09621e-09
-1.11825e-09
-1.14028e-09
-1.1623e-09
-1.18427e-09
-1.20639e-09
-1.22837e-09
-1.25046e-09
-1.27257e-09
-1.29469e-09
-1.31683e-09
-1.33901e-09
-1.36126e-09
-1.38359e-09
-1.40602e-09
-1.42862e-09
-1.4515e-09
-1.47456e-09
-1.49817e-09
-1.52232e-09
-1.54729e-09
-1.57338e-09
-1.60108e-09
-1.6309e-09
-1.66369e-09
-1.70046e-09
-1.74263e-09
-1.79199e-09
-1.85048e-09
-1.91971e-09
-2.00406e-09
-2.11711e-09
-2.25136e-09
5.26485e-11
-1.51334e-11
-3.74711e-11
-6.00538e-11
-8.27389e-11
-1.05233e-10
-1.2753e-10
-1.49665e-10
-1.71753e-10
-1.93803e-10
-2.15822e-10
-2.37825e-10
-2.59849e-10
-2.81812e-10
-3.03778e-10
-3.25823e-10
-3.47809e-10
-3.69847e-10
-3.91825e-10
-4.13813e-10
-4.35833e-10
-4.57849e-10
-4.79902e-10
-5.01893e-10
-5.23821e-10
-5.45894e-10
-5.6791e-10
-5.89898e-10
-6.11971e-10
-6.33939e-10
-6.55986e-10
-6.77932e-10
-6.99999e-10
-7.21988e-10
-7.43975e-10
-7.66001e-10
-7.88038e-10
-8.1002e-10
-8.32049e-10
-8.54059e-10
-8.76068e-10
-8.98072e-10
-9.20076e-10
-9.4212e-10
-9.64107e-10
-9.86149e-10
-1.00815e-09
-1.03017e-09
-1.05215e-09
-1.0742e-09
-1.09624e-09
-1.11825e-09
-1.14024e-09
-1.16229e-09
-1.18431e-09
-1.20638e-09
-1.22847e-09
-1.25049e-09
-1.27259e-09
-1.29467e-09
-1.31677e-09
-1.33899e-09
-1.36125e-09
-1.38354e-09
-1.40599e-09
-1.42867e-09
-1.45139e-09
-1.47467e-09
-1.4981e-09
-1.52229e-09
-1.54723e-09
-1.57341e-09
-1.60111e-09
-1.63098e-09
-1.66384e-09
-1.70076e-09
-1.74305e-09
-1.79256e-09
-1.85134e-09
-1.92166e-09
-2.00679e-09
-2.1524e-09
-2.25233e-09
5.01565e-11
-1.86973e-11
-3.84545e-11
-6.01803e-11
-8.2809e-11
-1.05261e-10
-1.27559e-10
-1.49658e-10
-1.71765e-10
-1.93803e-10
-2.15828e-10
-2.37762e-10
-2.59833e-10
-2.81806e-10
-3.03872e-10
-3.25765e-10
-3.47855e-10
-3.69762e-10
-3.91801e-10
-4.13826e-10
-4.35831e-10
-4.57824e-10
-4.79821e-10
-5.01832e-10
-5.23924e-10
-5.45882e-10
-5.67871e-10
-5.89926e-10
-6.11895e-10
-6.3395e-10
-6.55929e-10
-6.77971e-10
-6.99957e-10
-7.21977e-10
-7.44005e-10
-7.6596e-10
-7.88028e-10
-8.10016e-10
-8.32042e-10
-8.54048e-10
-8.76064e-10
-8.98064e-10
-9.20083e-10
-9.42116e-10
-9.64097e-10
-9.86133e-10
-1.00812e-09
-1.03013e-09
-1.05222e-09
-1.07417e-09
-1.0962e-09
-1.11821e-09
-1.1403e-09
-1.16231e-09
-1.18433e-09
-1.20635e-09
-1.22834e-09
-1.25041e-09
-1.27255e-09
-1.29466e-09
-1.31683e-09
-1.33896e-09
-1.36121e-09
-1.38354e-09
-1.40595e-09
-1.42854e-09
-1.45141e-09
-1.47445e-09
-1.49808e-09
-1.52217e-09
-1.5472e-09
-1.57331e-09
-1.60106e-09
-1.63097e-09
-1.66386e-09
-1.70084e-09
-1.74324e-09
-1.79284e-09
-1.85173e-09
-1.9214e-09
-2.0042e-09
-2.15109e-09
-2.25282e-09
4.91604e-11
-1.56087e-11
-3.7506e-11
-6.01739e-11
-8.2859e-11
-1.05283e-10
-1.27548e-10
-1.49728e-10
-1.71749e-10
-1.93819e-10
-2.15776e-10
-2.37856e-10
-2.59843e-10
-2.81809e-10
-3.03738e-10
-3.25842e-10
-3.47784e-10
-3.69862e-10
-3.91799e-10
-4.13808e-10
-4.35814e-10
-4.57902e-10
-4.79869e-10
-5.0185e-10
-5.23843e-10
-5.45853e-10
-5.67943e-10
-5.89895e-10
-6.11952e-10
-6.33926e-10
-6.55957e-10
-6.7792e-10
-7.00005e-10
-7.22001e-10
-7.4397e-10
-7.65966e-10
-7.88029e-10
-8.10013e-10
-8.32035e-10
-8.54038e-10
-8.7606e-10
-8.9806e-10
-9.20084e-10
-9.42102e-10
-9.64079e-10
-9.86126e-10
-1.00813e-09
-1.03019e-09
-1.05213e-09
-1.07417e-09
-1.09623e-09
-1.11824e-09
-1.14024e-09
-1.16227e-09
-1.18425e-09
-1.20637e-09
-1.22847e-09
-1.25046e-09
-1.27255e-09
-1.29463e-09
-1.31669e-09
-1.33896e-09
-1.36118e-09
-1.3835e-09
-1.40591e-09
-1.42857e-09
-1.45126e-09
-1.47451e-09
-1.49796e-09
-1.52213e-09
-1.54704e-09
-1.5732e-09
-1.60093e-09
-1.63087e-09
-1.66375e-09
-1.70075e-09
-1.74317e-09
-1.79285e-09
-1.85184e-09
-1.9225e-09
-2.0075e-09
-2.15169e-09
-2.25312e-09
4.8179e-11
-1.72307e-11
-3.80534e-11
-6.023e-11
-8.28505e-11
-1.05306e-10
-1.27574e-10
-1.49642e-10
-1.71773e-10
-1.93809e-10
-2.15852e-10
-2.37789e-10
-2.59823e-10
-2.81809e-10
-3.03874e-10
-3.25747e-10
-3.47884e-10
-3.69746e-10
-3.91827e-10
-4.13841e-10
-4.3582e-10
-4.57786e-10
-4.79837e-10
-5.01899e-10
-5.23894e-10
-5.45917e-10
-5.67843e-10
-5.89921e-10
-6.11929e-10
-6.33951e-10
-6.55944e-10
-6.77965e-10
-6.99931e-10
-7.21961e-10
-7.44008e-10
-7.65962e-10
-7.88033e-10
-8.10004e-10
-8.32026e-10
-8.54038e-10
-8.76058e-10
-8.98051e-10
-9.20079e-10
-9.42098e-10
-9.64095e-10
-9.86122e-10
-1.00812e-09
-1.03013e-09
-1.05222e-09
-1.0742e-09
-1.09615e-09
-1.11822e-09
-1.1403e-09
-1.16229e-09
-1.18435e-09
-1.20633e-09
-1.2283e-09
-1.25041e-09
-1.27252e-09
-1.29462e-09
-1.3168e-09
-1.33887e-09
-1.36114e-09
-1.38344e-09
-1.40586e-09
-1.42845e-09
-1.4513e-09
-1.47433e-09
-1.4979e-09
-1.52196e-09
-1.54693e-09
-1.57303e-09
-1.6008e-09
-1.63059e-09
-1.66352e-09
-1.70051e-09
-1.74292e-09
-1.79255e-09
-1.85153e-09
-1.9218e-09
-2.00563e-09
-2.15089e-09
-2.25354e-09
4.81379e-11
-1.72486e-11
-3.80542e-11
-6.02161e-11
-8.28585e-11
-1.05292e-10
-1.27571e-10
-1.49707e-10
-1.71764e-10
-1.93814e-10
-2.15782e-10
-2.37822e-10
-2.59879e-10
-2.81796e-10
-3.03737e-10
-3.25797e-10
-3.47808e-10
-3.69847e-10
-3.91749e-10
-4.13787e-10
-4.35846e-10
-4.57919e-10
-4.79877e-10
-5.01823e-10
-5.2388e-10
-5.45839e-10
-5.67935e-10
-5.89911e-10
-6.119e-10
-6.33917e-10
-6.55918e-10
-6.77953e-10
-6.99993e-10
-7.21951e-10
-7.43983e-10
-7.66001e-10
-7.87991e-10
-8.10015e-10
-8.32018e-10
-8.54048e-10
-8.76045e-10
-8.98075e-10
-9.20075e-10
-9.42097e-10
-9.64091e-10
-9.86127e-10
-1.00812e-09
-1.03015e-09
-1.05215e-09
-1.07413e-09
-1.09622e-09
-1.11823e-09
-1.14023e-09
-1.16226e-09
-1.18423e-09
-1.20633e-09
-1.22846e-09
-1.25043e-09
-1.27251e-09
-1.29459e-09
-1.31665e-09
-1.33891e-09
-1.3611e-09
-1.38342e-09
-1.40582e-09
-1.42844e-09
-1.45111e-09
-1.47429e-09
-1.49771e-09
-1.52186e-09
-1.54676e-09
-1.5728e-09
-1.60048e-09
-1.63033e-09
-1.66314e-09
-1.70005e-09
-1.74234e-09
-1.79197e-09
-1.85087e-09
-1.92103e-09
-2.00488e-09
-2.15007e-09
-2.25269e-09
4.91395e-11
-1.57942e-11
-3.75717e-11
-6.01848e-11
-8.28329e-11
-1.05296e-10
-1.27539e-10
-1.49696e-10
-1.71733e-10
-1.93803e-10
-2.15832e-10
-2.37814e-10
-2.59823e-10
-2.81836e-10
-3.03817e-10
-3.25766e-10
-3.47881e-10
-3.69796e-10
-3.91799e-10
-4.13847e-10
-4.35804e-10
-4.57809e-10
-4.7981e-10
-5.01898e-10
-5.23898e-10
-5.45919e-10
-5.6787e-10
-5.89912e-10
-6.11896e-10
-6.3395e-10
-6.55991e-10
-6.77959e-10
-6.99947e-10
-7.21952e-10
-7.43975e-10
-7.65997e-10
-7.88051e-10
-8.10013e-10
-8.32013e-10
-8.54037e-10
-8.76053e-10
-8.98075e-10
-9.20078e-10
-9.42093e-10
-9.64089e-10
-9.86128e-10
-1.00812e-09
-1.03014e-09
-1.0522e-09
-1.07422e-09
-1.09617e-09
-1.11821e-09
-1.1403e-09
-1.16227e-09
-1.18434e-09
-1.20632e-09
-1.22827e-09
-1.25045e-09
-1.27249e-09
-1.29459e-09
-1.31675e-09
-1.33884e-09
-1.36108e-09
-1.38332e-09
-1.40576e-09
-1.42827e-09
-1.45112e-09
-1.47413e-09
-1.49764e-09
-1.52165e-09
-1.54655e-09
-1.5726e-09
-1.60017e-09
-1.62984e-09
-1.66264e-09
-1.69941e-09
-1.74169e-09
-1.79107e-09
-1.84982e-09
-1.92039e-09
-2.00534e-09
-2.1492e-09
-2.25126e-09
5.00369e-11
-1.86117e-11
-3.84196e-11
-6.01774e-11
-8.27934e-11
-1.05256e-10
-1.27544e-10
-1.49671e-10
-1.7175e-10
-1.93792e-10
-2.15832e-10
-2.37791e-10
-2.5984e-10
-2.81783e-10
-3.03773e-10
-3.25772e-10
-3.47801e-10
-3.6981e-10
-3.91767e-10
-4.1379e-10
-4.35839e-10
-4.5788e-10
-4.79876e-10
-5.01837e-10
-5.23843e-10
-5.45853e-10
-5.67913e-10
-5.89918e-10
-6.11938e-10
-6.3391e-10
-6.55854e-10
-6.77968e-10
-6.99954e-10
-7.22015e-10
-7.4397e-10
-7.66004e-10
-7.88005e-10
-8.10018e-10
-8.3201e-10
-8.54063e-10
-8.76051e-10
-8.98077e-10
-9.20083e-10