/*--------------------------------*- C++ -*----------------------------------*\
| =========                 |                                                 |
| \\      /  F ield         | OpenFOAM: The Open Source CFD Toolbox           |
|  \\    /   O peration     | Version:  v1906                                 |
|   \\  /    A nd           | Web:      www.OpenFOAM.com                      |
|    \\/     M anipulation  |                                                 |
\*---------------------------------------------------------------------------*/
FoamFile
{
    version     2.0;
    format      ascii;
    class       volScalarField;
    location    "65.5";
    object      p;
}
// * * * * * * * * * * * * * * * * * * * * * * * * * * * * * * * * * * * * * //

dimensions      [0 2 -2 0 0 0 0];


internalField   nonuniform List<scalar> 
243374
(
1.53865e-16
-3.92697e-11
-5.9098e-11
-8.20827e-11
-1.04726e-10
-1.27054e-10
-1.49224e-10
-1.71283e-10
-1.93296e-10
-2.15264e-10
-2.3721e-10
-2.59157e-10
-2.81097e-10
-3.03029e-10
-3.24963e-10
-3.46894e-10
-3.68833e-10
-3.90774e-10
-4.12705e-10
-4.34651e-10
-4.56599e-10
-4.78527e-10
-5.00464e-10
-5.22415e-10
-5.44349e-10
-5.66292e-10
-5.88236e-10
-6.1017e-10
-6.32114e-10
-6.54058e-10
-6.76e-10
-6.97938e-10
-7.19881e-10
-7.41824e-10
-7.63767e-10
-7.85709e-10
-8.07643e-10
-8.29592e-10
-8.51537e-10
-8.73473e-10
-8.95414e-10
-9.17365e-10
-9.39302e-10
-9.61249e-10
-9.83192e-10
-1.00514e-09
-1.02709e-09
-1.04904e-09
-1.07099e-09
-1.09295e-09
-1.11491e-09
-1.13687e-09
-1.15885e-09
-1.18083e-09
-1.20283e-09
-1.22485e-09
-1.24689e-09
-1.26896e-09
-1.29108e-09
-1.31327e-09
-1.33555e-09
-1.35795e-09
-1.38051e-09
-1.4033e-09
-1.4264e-09
-1.44996e-09
-1.47412e-09
-1.49915e-09
-1.52531e-09
-1.55323e-09
-1.58339e-09
-1.61674e-09
-1.65444e-09
-1.69809e-09
-1.74983e-09
-1.81252e-09
-1.88969e-09
-1.98575e-09
-2.09867e-09
-2.27556e-09
-1.2397e-11
-4.01666e-11
-5.94693e-11
-8.22501e-11
-1.04818e-10
-1.27116e-10
-1.49268e-10
-1.71317e-10
-1.93307e-10
-2.15277e-10
-2.37226e-10
-2.59165e-10
-2.81096e-10
-3.03031e-10
-3.24967e-10
-3.46905e-10
-3.68845e-10
-3.90776e-10
-4.12722e-10
-4.34655e-10
-4.56591e-10
-4.78547e-10
-5.00482e-10
-5.22408e-10
-5.44358e-10
-5.66299e-10
-5.88238e-10
-6.10182e-10
-6.32121e-10
-6.54061e-10
-6.76004e-10
-6.97949e-10
-7.19886e-10
-7.41828e-10
-7.63774e-10
-7.85711e-10
-8.07659e-10
-8.29595e-10
-8.51538e-10
-8.73483e-10
-8.95424e-10
-9.17366e-10
-9.3931e-10
-9.61259e-10
-9.83194e-10
-1.00515e-09
-1.0271e-09
-1.04904e-09
-1.071e-09
-1.09296e-09
-1.11491e-09
-1.13688e-09
-1.15885e-09
-1.18084e-09
-1.20284e-09
-1.22486e-09
-1.2469e-09
-1.26898e-09
-1.29111e-09
-1.3133e-09
-1.33557e-09
-1.35798e-09
-1.38055e-09
-1.40337e-09
-1.42649e-09
-1.45008e-09
-1.4743e-09
-1.49938e-09
-1.52567e-09
-1.55368e-09
-1.58402e-09
-1.61755e-09
-1.65556e-09
-1.69968e-09
-1.75209e-09
-1.81579e-09
-1.89383e-09
-1.99125e-09
-2.10713e-09
-2.26965e-09
-2.9639e-11
-4.03693e-11
-5.97235e-11
-8.23441e-11
-1.04861e-10
-1.27134e-10
-1.49265e-10
-1.71317e-10
-1.93317e-10
-2.15277e-10
-2.37217e-10
-2.59159e-10
-2.81098e-10
-3.03033e-10
-3.24963e-10
-3.46897e-10
-3.68828e-10
-3.90776e-10
-4.12706e-10
-4.34649e-10
-4.56596e-10
-4.78515e-10
-5.00462e-10
-5.22422e-10
-5.4435e-10
-5.66291e-10
-5.88236e-10
-6.10169e-10
-6.32113e-10
-6.54053e-10
-6.75994e-10
-6.97935e-10
-7.19885e-10
-7.41827e-10
-7.6376e-10
-7.85706e-10
-8.07641e-10
-8.29591e-10
-8.51538e-10
-8.73472e-10
-8.95419e-10
-9.17365e-10
-9.39304e-10
-9.61242e-10
-9.83197e-10
-1.00514e-09
-1.02708e-09
-1.04905e-09
-1.07098e-09
-1.09294e-09
-1.11491e-09
-1.13688e-09
-1.15886e-09
-1.18083e-09
-1.20283e-09
-1.22485e-09
-1.2469e-09
-1.26897e-09
-1.2911e-09
-1.3133e-09
-1.33559e-09
-1.358e-09
-1.38058e-09
-1.40339e-09
-1.42655e-09
-1.45017e-09
-1.47441e-09
-1.49956e-09
-1.52591e-09
-1.55403e-09
-1.58451e-09
-1.61823e-09
-1.65649e-09
-1.70097e-09
-1.75384e-09
-1.81802e-09
-1.89684e-09
-1.9948e-09
-2.11254e-09
-2.25757e-09
1.25443e-10
-2.38115e-11
-3.80374e-11
-5.9742e-11
-8.24018e-11
-1.049e-10
-1.27156e-10
-1.49312e-10
-1.71332e-10
-1.93318e-10
-2.15282e-10
-2.37235e-10
-2.59167e-10
-2.81101e-10
-3.03026e-10
-3.24969e-10
-3.46899e-10
-3.68848e-10
-3.9077e-10
-4.12722e-10
-4.34662e-10
-4.56591e-10
-4.78548e-10
-5.00479e-10
-5.22398e-10
-5.44354e-10
-5.66296e-10
-5.88237e-10
-6.10184e-10
-6.32118e-10
-6.54064e-10
-6.76009e-10
-6.9795e-10
-7.1988e-10
-7.41819e-10
-7.63778e-10
-7.85705e-10
-8.07657e-10
-8.29592e-10
-8.51529e-10
-8.73473e-10
-8.9542e-10
-9.17362e-10
-9.39305e-10
-9.61263e-10
-9.8319e-10
-1.00515e-09
-1.0271e-09
-1.04903e-09
-1.071e-09
-1.09296e-09
-1.11491e-09
-1.13687e-09
-1.15884e-09
-1.18084e-09
-1.20284e-09
-1.22487e-09
-1.24691e-09
-1.269e-09
-1.29113e-09
-1.3133e-09
-1.3356e-09
-1.35802e-09
-1.3806e-09
-1.40345e-09
-1.42662e-09
-1.45024e-09
-1.47454e-09
-1.49971e-09
-1.52616e-09
-1.55436e-09
-1.58495e-09
-1.61886e-09
-1.65736e-09
-1.70214e-09
-1.75539e-09
-1.82003e-09
-1.89952e-09
-1.9983e-09
-2.12004e-09
-2.263e-09
-2.41377e-09
1.15442e-10
-2.8482e-11
-3.86614e-11
-5.97953e-11
-8.24422e-11
-1.04926e-10
-1.27175e-10
-1.49287e-10
-1.71341e-10
-1.93327e-10
-2.15286e-10
-2.37228e-10
-2.59157e-10
-2.81095e-10
-3.0304e-10
-3.24962e-10
-3.46906e-10
-3.68827e-10
-3.9078e-10
-4.12706e-10
-4.34642e-10
-4.56585e-10
-4.78511e-10
-5.00468e-10
-5.22427e-10
-5.44354e-10
-5.66296e-10
-5.88234e-10
-6.10168e-10
-6.32117e-10
-6.54054e-10
-6.75994e-10
-6.97929e-10
-7.19883e-10
-7.41835e-10
-7.63759e-10
-7.85712e-10
-8.07646e-10
-8.29584e-10
-8.51529e-10
-8.73475e-10
-8.95414e-10
-9.17358e-10
-9.393e-10
-9.61243e-10
-9.832e-10
-1.00514e-09
-1.02708e-09
-1.04905e-09
-1.07099e-09
-1.09294e-09
-1.11491e-09
-1.13689e-09
-1.15886e-09
-1.18084e-09
-1.20283e-09
-1.22485e-09
-1.24691e-09
-1.26898e-09
-1.29111e-09
-1.31333e-09
-1.33561e-09
-1.35804e-09
-1.38063e-09
-1.40347e-09
-1.42664e-09
-1.45031e-09
-1.47461e-09
-1.49985e-09
-1.52633e-09
-1.5546e-09
-1.5853e-09
-1.61936e-09
-1.65803e-09
-1.70306e-09
-1.75663e-09
-1.82161e-09
-1.90158e-09
-2.00095e-09
-2.12306e-09
-2.26509e-09
-2.43826e-09
-2.71517e-09
1.09593e-10
-2.30466e-11
-3.74113e-11
-5.97245e-11
-8.24651e-11
-1.04926e-10
-1.27186e-10
-1.49325e-10
-1.7134e-10
-1.93328e-10
-2.15285e-10
-2.37231e-10
-2.59171e-10
-2.81099e-10
-3.03022e-10
-3.24973e-10
-3.46891e-10
-3.68845e-10
-3.90766e-10
-4.12714e-10
-4.34663e-10
-4.56598e-10
-4.78549e-10
-5.00473e-10
-5.22396e-10
-5.44353e-10
-5.66291e-10
-5.88235e-10
-6.10179e-10
-6.32114e-10
-6.54058e-10
-6.76006e-10
-6.97956e-10
-7.19884e-10
-7.4181e-10
-7.63768e-10
-7.85701e-10
-8.07644e-10
-8.29588e-10
-8.5153e-10
-8.73466e-10
-8.95418e-10
-9.17358e-10
-9.39307e-10
-9.61249e-10
-9.83193e-10
-1.00514e-09
-1.0271e-09
-1.04902e-09
-1.07099e-09
-1.09296e-09
-1.11492e-09
-1.13687e-09
-1.15884e-09
-1.18084e-09
-1.20285e-09
-1.22487e-09
-1.24691e-09
-1.269e-09
-1.29113e-09
-1.31332e-09
-1.33562e-09
-1.35804e-09
-1.38064e-09
-1.4035e-09
-1.42669e-09
-1.45035e-09
-1.47469e-09
-1.49994e-09
-1.52647e-09
-1.55479e-09
-1.58556e-09
-1.61972e-09
-1.65857e-09
-1.70373e-09
-1.7575e-09
-1.82275e-09
-1.90305e-09
-2.00289e-09
-2.12677e-09
-2.27471e-09
-2.44967e-09
-2.71983e-09
1.05794e-10
-2.56245e-11
-3.78474e-11
-5.97763e-11
-8.24704e-11
-1.04957e-10
-1.27186e-10
-1.49308e-10
-1.71347e-10
-1.93324e-10
-2.15295e-10
-2.37231e-10
-2.59153e-10
-2.81104e-10
-3.03041e-10
-3.24961e-10
-3.46905e-10
-3.68833e-10
-3.90786e-10
-4.12716e-10
-4.34642e-10
-4.56581e-10
-4.78516e-10
-5.00471e-10
-5.22421e-10
-5.44358e-10
-5.66297e-10
-5.88233e-10
-6.10176e-10
-6.32121e-10
-6.54058e-10
-6.75994e-10
-6.97927e-10
-7.19876e-10
-7.41839e-10
-7.6377e-10
-7.85703e-10
-8.07643e-10
-8.29581e-10
-8.51517e-10
-8.73467e-10
-8.95396e-10
-9.17356e-10
-9.39287e-10
-9.61247e-10
-9.83191e-10
-1.00514e-09
-1.02708e-09
-1.04906e-09
-1.071e-09
-1.09294e-09
-1.1149e-09
-1.13689e-09
-1.15887e-09
-1.18084e-09
-1.20283e-09
-1.22485e-09
-1.24691e-09
-1.26899e-09
-1.29112e-09
-1.31334e-09
-1.33562e-09
-1.35805e-09
-1.38066e-09
-1.40351e-09
-1.4267e-09
-1.45039e-09
-1.47472e-09
-1.5e-09
-1.52655e-09
-1.5549e-09
-1.58571e-09
-1.61993e-09
-1.65884e-09
-1.70413e-09
-1.75803e-09
-1.82341e-09
-1.90389e-09
-2.00394e-09
-2.12778e-09
-2.27339e-09
-2.45391e-09
-2.72379e-09
1.04476e-10
-2.55817e-11
-3.7836e-11
-5.97617e-11
-8.24703e-11
-1.04929e-10
-1.27195e-10
-1.49312e-10
-1.71346e-10
-1.93336e-10
-2.15279e-10
-2.37231e-10
-2.59171e-10
-2.81089e-10
-3.03026e-10
-3.24971e-10
-3.46891e-10
-3.68836e-10
-3.90764e-10
-4.12703e-10
-4.3466e-10
-4.566e-10
-4.78539e-10
-5.0047e-10
-5.22402e-10
-5.44345e-10
-5.6629e-10
-5.88237e-10
-6.1017e-10
-6.32109e-10
-6.54057e-10
-6.76002e-10
-6.9795e-10
-7.19889e-10
-7.41806e-10
-7.63766e-10
-7.85702e-10
-8.07646e-10
-8.29591e-10
-8.51536e-10
-8.73468e-10
-8.95418e-10
-9.17355e-10
-9.39306e-10
-9.61247e-10
-9.83189e-10
-1.00515e-09
-1.0271e-09
-1.04902e-09
-1.07098e-09
-1.09296e-09
-1.11491e-09
-1.13687e-09
-1.15884e-09
-1.18084e-09
-1.20285e-09
-1.22487e-09
-1.24691e-09
-1.269e-09
-1.29113e-09
-1.31332e-09
-1.33563e-09
-1.35805e-09
-1.38066e-09
-1.40352e-09
-1.42672e-09
-1.45039e-09
-1.47474e-09
-1.50001e-09
-1.52658e-09
-1.55493e-09
-1.58577e-09
-1.62e-09
-1.65894e-09
-1.70424e-09
-1.75817e-09
-1.82359e-09
-1.90409e-09
-2.00414e-09
-2.12795e-09
-2.2734e-09
-2.45494e-09
-2.72497e-09
1.05267e-10
-2.3269e-11
-3.74809e-11
-5.97461e-11
-8.2465e-11
-1.04952e-10
-1.27176e-10
-1.49313e-10
-1.71341e-10
-1.93316e-10
-2.15293e-10
-2.37229e-10
-2.59156e-10
-2.81107e-10
-3.03034e-10
-3.24966e-10
-3.46898e-10
-3.6884e-10
-3.90788e-10
-4.12722e-10
-4.34644e-10
-4.56582e-10
-4.78525e-10
-5.00471e-10
-5.22412e-10
-5.44358e-10
-5.663e-10
-5.88231e-10
-6.10182e-10
-6.32125e-10
-6.5406e-10
-6.75997e-10
-6.97935e-10
-7.19873e-10
-7.41841e-10
-7.63764e-10
-7.85703e-10
-8.07646e-10
-8.29586e-10
-8.51515e-10
-8.73471e-10
-8.95413e-10
-9.17356e-10
-9.39299e-10
-9.61247e-10
-9.83197e-10
-1.00514e-09
-1.02709e-09
-1.04905e-09
-1.071e-09
-1.09295e-09
-1.11491e-09
-1.13689e-09
-1.15886e-09
-1.18084e-09
-1.20284e-09
-1.22486e-09
-1.24692e-09
-1.26899e-09
-1.29113e-09
-1.31334e-09
-1.33563e-09
-1.35805e-09
-1.38066e-09
-1.40351e-09
-1.42671e-09
-1.45039e-09
-1.47473e-09
-1.5e-09
-1.52655e-09
-1.55489e-09
-1.5857e-09
-1.61992e-09
-1.65882e-09
-1.70408e-09
-1.75796e-09
-1.82326e-09
-1.90361e-09
-2.00347e-09
-2.12719e-09
-2.27549e-09
-2.45274e-09
-2.72306e-09
1.08505e-10
-2.84274e-11
-3.8653e-11
-5.98082e-11
-8.24457e-11
-1.04903e-10
-1.27183e-10
-1.49285e-10
-1.71338e-10
-1.93328e-10
-2.15273e-10
-2.37231e-10
-2.59169e-10
-2.81082e-10
-3.03032e-10
-3.24963e-10
-3.46896e-10
-3.68827e-10
-3.90762e-10
-4.12701e-10
-4.34655e-10
-4.56592e-10
-4.78533e-10
-5.00469e-10
-5.22411e-10
-5.44348e-10
-5.66285e-10
-5.88235e-10
-6.10168e-10
-6.32106e-10
-6.54052e-10
-6.75997e-10
-6.9794e-10
-7.19889e-10
-7.41809e-10
-7.63759e-10
-7.85716e-10
-8.07646e-10
-8.29591e-10
-8.51533e-10
-8.73469e-10
-8.95416e-10
-9.17357e-10
-9.39303e-10
-9.61246e-10
-9.83195e-10
-1.00515e-09
-1.02709e-09
-1.04903e-09
-1.07098e-09
-1.09295e-09
-1.11491e-09
-1.13686e-09
-1.15885e-09
-1.18083e-09
-1.20284e-09
-1.22486e-09
-1.2469e-09
-1.26899e-09
-1.29112e-09
-1.31331e-09
-1.33562e-09
-1.35804e-09
-1.38065e-09
-1.4035e-09
-1.42669e-09
-1.45036e-09
-1.47468e-09
-1.49994e-09
-1.52646e-09
-1.55478e-09
-1.58555e-09
-1.6197e-09
-1.65851e-09
-1.70366e-09
-1.75736e-09
-1.82247e-09
-1.90252e-09
-2.00192e-09
-2.12411e-09
-2.26572e-09
-2.44608e-09
-2.71905e-09
1.1958e-10
-2.39775e-11
-3.80681e-11
-5.97356e-11
-8.2407e-11
-1.04905e-10
-1.27153e-10
-1.49289e-10
-1.71331e-10
-1.93312e-10
-2.15287e-10
-2.37223e-10
-2.59156e-10
-2.81106e-10
-3.03031e-10
-3.24969e-10
-3.46897e-10
-3.68844e-10
-3.90789e-10
-4.12723e-10
-4.34648e-10
-4.56591e-10
-4.7853e-10
-5.0047e-10
-5.22413e-10
-5.44353e-10
-5.66303e-10
-5.88235e-10
-6.10182e-10
-6.32126e-10
-6.54065e-10
-6.75999e-10
-6.97945e-10
-7.19874e-10
-7.41835e-10
-7.63775e-10
-7.85698e-10
-8.07653e-10
-8.29599e-10
-8.5153e-10
-8.73479e-10
-8.95418e-10
-9.17371e-10
-9.39304e-10
-9.61257e-10
-9.83194e-10
-1.00514e-09
-1.02709e-09
-1.04904e-09
-1.07101e-09
-1.09295e-09
-1.11492e-09
-1.13689e-09
-1.15886e-09
-1.18084e-09
-1.20284e-09
-1.22486e-09
-1.24691e-09
-1.26899e-09
-1.29113e-09
-1.31333e-09
-1.33562e-09
-1.35804e-09
-1.38063e-09
-1.40347e-09
-1.42665e-09
-1.45031e-09
-1.47462e-09
-1.49984e-09
-1.52636e-09
-1.55459e-09
-1.58528e-09
-1.61934e-09
-1.658e-09
-1.70297e-09
-1.75642e-09
-1.8212e-09
-1.90082e-09
-1.99964e-09
-2.12129e-09
-2.26429e-09
-2.42858e-09
-2.71849e-09
1.46646e-10
-2.97509e-11
-4.03833e-11
-5.97387e-11
-8.23405e-11
-1.04845e-10
-1.2713e-10
-1.49259e-10
-1.71312e-10
-1.93309e-10
-2.15265e-10
-2.37222e-10
-2.5916e-10
-2.81081e-10
-3.03028e-10
-3.24961e-10
-3.46892e-10
-3.68828e-10
-3.90762e-10
-4.12702e-10
-4.3465e-10
-4.56587e-10
-4.78525e-10
-5.00472e-10
-5.22409e-10
-5.44352e-10
-5.66286e-10
-5.88232e-10
-6.10171e-10
-6.32107e-10
-6.54049e-10
-6.75995e-10
-6.97937e-10
-7.19887e-10
-7.41814e-10
-7.63756e-10
-7.85712e-10
-8.07649e-10
-8.29582e-10
-8.51538e-10
-8.73474e-10
-8.95415e-10
-9.17359e-10
-9.39303e-10
-9.61243e-10
-9.83195e-10
-1.00514e-09
-1.02708e-09
-1.04904e-09
-1.07098e-09
-1.09295e-09
-1.1149e-09
-1.13686e-09
-1.15885e-09
-1.18083e-09
-1.20284e-09
-1.22485e-09
-1.24689e-09
-1.26898e-09
-1.2911e-09
-1.3133e-09
-1.33559e-09
-1.35801e-09
-1.3806e-09
-1.40344e-09
-1.42661e-09
-1.45024e-09
-1.47452e-09
-1.49971e-09
-1.52616e-09
-1.55434e-09
-1.58492e-09
-1.61883e-09
-1.65729e-09
-1.70198e-09
-1.75509e-09
-1.81943e-09
-1.89845e-09
-1.99646e-09
-2.1142e-09
-2.25895e-09
-2.39896e-09
-1.2529e-11
-4.02029e-11
-5.94766e-11
-8.22448e-11
-1.04816e-10
-1.27108e-10
-1.49251e-10
-1.71306e-10
-1.93304e-10
-2.15272e-10
-2.37217e-10
-2.59155e-10
-2.811e-10
-3.03027e-10
-3.24966e-10
-3.46903e-10
-3.68839e-10
-3.90781e-10
-4.12719e-10
-4.34654e-10
-4.56592e-10
-4.78535e-10
-5.00469e-10
-5.22415e-10
-5.44352e-10
-5.66301e-10
-5.88237e-10
-6.10177e-10
-6.32123e-10
-6.54066e-10
-6.76001e-10
-6.97942e-10
-7.19878e-10
-7.41832e-10
-7.63773e-10
-7.85705e-10
-8.07651e-10
-8.296e-10
-8.51536e-10
-8.73481e-10
-8.95426e-10
-9.17367e-10
-9.39309e-10
-9.61256e-10
-9.83195e-10
-1.00514e-09
-1.0271e-09
-1.04904e-09
-1.071e-09
-1.09295e-09
-1.11492e-09
-1.13689e-09
-1.15885e-09
-1.18084e-09
-1.20284e-09
-1.22486e-09
-1.24691e-09
-1.26898e-09
-1.29111e-09
-1.3133e-09
-1.33559e-09
-1.358e-09
-1.38058e-09
-1.4034e-09
-1.42656e-09
-1.45017e-09
-1.47443e-09
-1.49956e-09
-1.52596e-09
-1.55403e-09
-1.58449e-09
-1.61824e-09
-1.65646e-09
-1.70084e-09
-1.75355e-09
-1.81744e-09
-1.89579e-09
-1.99325e-09
-2.10912e-09
-2.27123e-09
-2.58503e-13
-3.93065e-11
-5.91114e-11
-8.20765e-11
-1.04712e-10
-1.27043e-10
-1.49211e-10
-1.71278e-10
-1.93284e-10
-2.15252e-10
-2.37212e-10
-2.59153e-10
-2.81077e-10
-3.03023e-10
-3.24961e-10
-3.46891e-10
-3.68833e-10
-3.90766e-10
-4.12708e-10
-4.34646e-10
-4.56589e-10
-4.78524e-10
-5.00474e-10
-5.22411e-10
-5.44351e-10
-5.66289e-10
-5.88232e-10
-6.10178e-10
-6.3211e-10
-6.54047e-10
-6.76001e-10
-6.97937e-10
-7.19883e-10
-7.41819e-10
-7.6376e-10
-7.85707e-10
-8.07651e-10
-8.29587e-10
-8.51536e-10
-8.73475e-10
-8.95415e-10
-9.17362e-10
-9.39302e-10
-9.61242e-10
-9.83192e-10
-1.00514e-09
-1.02709e-09
-1.04904e-09
-1.07099e-09
-1.09295e-09
-1.1149e-09
-1.13687e-09
-1.15885e-09
-1.18083e-09
-1.20283e-09
-1.22485e-09
-1.24688e-09
-1.26896e-09
-1.29109e-09
-1.31329e-09
-1.33556e-09
-1.35796e-09
-1.38053e-09
-1.40334e-09
-1.42646e-09
-1.45005e-09
-1.47424e-09
-1.49933e-09
-1.5256e-09
-1.55358e-09
-1.58387e-09
-1.61736e-09
-1.65526e-09
-1.69918e-09
-1.75131e-09
-1.81459e-09
-1.89134e-09
-1.98749e-09
-2.10068e-09
-2.27722e-09
-1.62031e-11
-3.15507e-11
-5.69881e-11
-8.12138e-11
-1.04293e-10
-1.26819e-10
-1.49077e-10
-1.71188e-10
-1.93231e-10
-2.15224e-10
-2.37188e-10
-2.59139e-10
-2.81078e-10
-3.03024e-10
-3.24957e-10
-3.46893e-10
-3.68834e-10
-3.90772e-10
-4.12708e-10
-4.34647e-10
-4.56593e-10
-4.78531e-10
-5.00464e-10
-5.22412e-10
-5.44349e-10
-5.66296e-10
-5.88236e-10
-6.10172e-10
-6.3211e-10
-6.5406e-10
-6.76e-10
-6.9794e-10
-7.19874e-10
-7.41825e-10
-7.63768e-10
-7.85707e-10
-8.07645e-10
-8.29587e-10
-8.51532e-10
-8.73476e-10
-8.95415e-10
-9.17359e-10
-9.39304e-10
-9.61245e-10
-9.83195e-10
-1.00514e-09
-1.02709e-09
-1.04904e-09
-1.07099e-09
-1.09294e-09
-1.1149e-09
-1.13687e-09
-1.15884e-09
-1.18082e-09
-1.20281e-09
-1.22482e-09
-1.24686e-09
-1.26891e-09
-1.29102e-09
-1.31318e-09
-1.33543e-09
-1.35777e-09
-1.38026e-09
-1.40294e-09
-1.42592e-09
-1.44925e-09
-1.47314e-09
-1.49775e-09
-1.52346e-09
-1.55049e-09
-1.57954e-09
-1.61137e-09
-1.64699e-09
-1.68781e-09
-1.73597e-09
-1.79378e-09
-1.86582e-09
-1.95662e-09
-2.07125e-09
-2.20779e-09
1.44621e-10
-2.29785e-11
-3.33458e-11
-5.76299e-11
-8.14866e-11
-1.0444e-10
-1.26905e-10
-1.49136e-10
-1.71228e-10
-1.93255e-10
-2.15243e-10
-2.37198e-10
-2.59144e-10
-2.81092e-10
-3.03022e-10
-3.24965e-10
-3.46907e-10
-3.68837e-10
-3.90774e-10
-4.12718e-10
-4.34655e-10
-4.56589e-10
-4.78533e-10
-5.0048e-10
-5.22416e-10
-5.44359e-10
-5.66296e-10
-5.88236e-10
-6.10183e-10
-6.32129e-10
-6.54059e-10
-6.76003e-10
-6.97946e-10
-7.19891e-10
-7.41826e-10
-7.63761e-10
-7.85707e-10
-8.07659e-10
-8.29595e-10
-8.51533e-10
-8.73483e-10
-8.95425e-10
-9.17362e-10
-9.39304e-10
-9.61249e-10
-9.83201e-10
-1.00515e-09
-1.02709e-09
-1.04904e-09
-1.07099e-09
-1.09296e-09
-1.11491e-09
-1.13687e-09
-1.15884e-09
-1.18083e-09
-1.20282e-09
-1.22483e-09
-1.24687e-09
-1.26894e-09
-1.29105e-09
-1.31321e-09
-1.33546e-09
-1.35781e-09
-1.38032e-09
-1.40304e-09
-1.42605e-09
-1.44947e-09
-1.47341e-09
-1.49817e-09
-1.52398e-09
-1.55123e-09
-1.58057e-09
-1.61278e-09
-1.64899e-09
-1.69059e-09
-1.73978e-09
-1.79921e-09
-1.87244e-09
-1.9643e-09
-2.08037e-09
-2.2117e-09
-2.32561e-09
1.30452e-10
-1.2985e-11
-3.40357e-11
-5.80537e-11
-8.16689e-11
-1.0452e-10
-1.26949e-10
-1.49147e-10
-1.71239e-10
-1.93264e-10
-2.1524e-10
-2.37208e-10
-2.59147e-10
-2.8108e-10
-3.03033e-10
-3.2496e-10
-3.46889e-10
-3.68835e-10
-3.90774e-10
-4.12705e-10
-4.3465e-10
-4.56596e-10
-4.78531e-10
-5.00463e-10
-5.22412e-10
-5.44348e-10
-5.66298e-10
-5.88236e-10
-6.1017e-10
-6.32108e-10
-6.54062e-10
-6.76003e-10
-6.97935e-10
-7.19878e-10
-7.41824e-10
-7.63773e-10
-7.85713e-10
-8.07634e-10
-8.29589e-10
-8.51538e-10
-8.73475e-10
-8.95409e-10
-9.17363e-10
-9.39307e-10
-9.61248e-10
-9.83191e-10
-1.00514e-09
-1.02709e-09
-1.04904e-09
-1.071e-09
-1.09294e-09
-1.11491e-09
-1.13687e-09
-1.15884e-09
-1.18082e-09
-1.20282e-09
-1.22484e-09
-1.24687e-09
-1.26894e-09
-1.29105e-09
-1.31322e-09
-1.3355e-09
-1.35786e-09
-1.38038e-09
-1.40312e-09
-1.42617e-09
-1.4496e-09
-1.47364e-09
-1.49846e-09
-1.52441e-09
-1.55183e-09
-1.58146e-09
-1.61403e-09
-1.6507e-09
-1.69293e-09
-1.7428e-09
-1.80333e-09
-1.87809e-09
-1.97143e-09
-2.08906e-09
-2.23331e-09
-2.34104e-09
-2.58542e-09
1.45701e-10
-1.34561e-11
-3.49925e-11
-5.84854e-11
-8.18526e-11
-1.04607e-10
-1.27005e-10
-1.49192e-10
-1.71262e-10
-1.93277e-10
-2.15256e-10
-2.37214e-10
-2.59154e-10
-2.81087e-10
-3.03022e-10
-3.24972e-10
-3.4691e-10
-3.68836e-10
-3.90777e-10
-4.12722e-10
-4.34655e-10
-4.56579e-10
-4.78531e-10
-5.00487e-10
-5.22416e-10
-5.44357e-10
-5.66295e-10
-5.8823e-10
-6.10188e-10
-6.3213e-10
-6.54057e-10
-6.76005e-10
-6.97948e-10
-7.19892e-10
-7.41825e-10
-7.63763e-10
-7.85702e-10
-8.07668e-10
-8.29598e-10
-8.51525e-10
-8.73485e-10
-8.95428e-10
-9.17359e-10
-9.39307e-10
-9.61248e-10
-9.83202e-10
-1.00515e-09
-1.02709e-09
-1.04904e-09
-1.07099e-09
-1.09296e-09
-1.11491e-09
-1.13688e-09
-1.15884e-09
-1.18084e-09
-1.20283e-09
-1.22485e-09
-1.24688e-09
-1.26897e-09
-1.29109e-09
-1.31326e-09
-1.33551e-09
-1.35789e-09
-1.38045e-09
-1.4032e-09
-1.4263e-09
-1.44977e-09
-1.47384e-09
-1.49878e-09
-1.52489e-09
-1.55247e-09
-1.58229e-09
-1.61521e-09
-1.65235e-09
-1.69521e-09
-1.74591e-09
-1.80745e-09
-1.88341e-09
-1.97805e-09
-2.09671e-09
-2.24214e-09
-2.29778e-09
-2.62069e-09
1.04498e-10
-9.32873e-12
-3.52109e-11
-5.88593e-11
-8.20393e-11
-1.04701e-10
-1.27056e-10
-1.49231e-10
-1.71282e-10
-1.93299e-10
-2.15269e-10
-2.37222e-10
-2.59155e-10
-2.81097e-10
-3.03036e-10
-3.24963e-10
-3.46891e-10
-3.68835e-10
-3.90779e-10
-4.12711e-10
-4.3465e-10
-4.56606e-10
-4.78532e-10
-5.00464e-10
-5.2242e-10
-5.44351e-10
-5.66297e-10
-5.88238e-10
-6.10171e-10
-6.32114e-10
-6.54064e-10
-6.76001e-10
-6.97943e-10
-7.1988e-10
-7.41823e-10
-7.63772e-10
-7.8572e-10
-8.07642e-10
-8.29595e-10
-8.51542e-10
-8.73479e-10
-8.95413e-10
-9.1737e-10
-9.39307e-10
-9.61249e-10
-9.83198e-10
-1.00514e-09
-1.02709e-09
-1.04905e-09
-1.07099e-09
-1.09295e-09
-1.11492e-09
-1.13687e-09
-1.15885e-09
-1.18083e-09
-1.20284e-09
-1.22485e-09
-1.24689e-09
-1.26896e-09
-1.29108e-09
-1.31326e-09
-1.33555e-09
-1.35794e-09
-1.38048e-09
-1.40328e-09
-1.42635e-09
-1.44989e-09
-1.47405e-09
-1.49902e-09
-1.52513e-09
-1.55297e-09
-1.58303e-09
-1.61626e-09
-1.65381e-09
-1.69718e-09
-1.74855e-09
-1.81089e-09
-1.88773e-09
-1.98395e-09
-2.105e-09
-2.25459e-09
-2.35473e-09
-2.64904e-09
8.80658e-11
-1.19759e-11
-3.66325e-11
-5.93697e-11
-8.22679e-11
-1.04829e-10
-1.2716e-10
-1.49276e-10
-1.71339e-10
-1.93322e-10
-2.15288e-10
-2.37249e-10
-2.59174e-10
-2.81091e-10
-3.03036e-10
-3.2497e-10
-3.46918e-10
-3.6885e-10
-3.90781e-10
-4.12721e-10
-4.3466e-10
-4.56577e-10
-4.78552e-10
-5.00497e-10
-5.22411e-10
-5.44357e-10
-5.66303e-10
-5.88232e-10
-6.10198e-10
-6.3213e-10
-6.54065e-10
-6.76006e-10
-6.9796e-10
-7.19896e-10
-7.41828e-10
-7.63765e-10
-7.85718e-10
-8.07668e-10
-8.29603e-10
-8.51533e-10
-8.73498e-10
-8.95432e-10
-9.17357e-10
-9.39321e-10
-9.6126e-10
-9.83207e-10
-1.00515e-09
-1.0271e-09
-1.04903e-09
-1.071e-09
-1.09295e-09
-1.11491e-09
-1.13688e-09
-1.15885e-09
-1.18084e-09
-1.20283e-09
-1.22487e-09
-1.24691e-09
-1.26899e-09
-1.29111e-09
-1.31329e-09
-1.33556e-09
-1.35797e-09
-1.38053e-09
-1.40333e-09
-1.42646e-09
-1.45003e-09
-1.47423e-09
-1.49928e-09
-1.52552e-09
-1.5535e-09
-1.58372e-09
-1.61711e-09
-1.65491e-09
-1.69885e-09
-1.75103e-09
-1.81433e-09
-1.89211e-09
-1.98941e-09
-2.11094e-09
-2.26428e-09
-2.41752e-09
-2.65645e-09
7.98574e-11
-1.56968e-11
-3.78155e-11
-5.96951e-11
-8.24237e-11
-1.04906e-10
-1.27197e-10
-1.49302e-10
-1.71347e-10
-1.93337e-10
-2.15298e-10
-2.37231e-10
-2.5917e-10
-2.81111e-10
-3.03045e-10
-3.24971e-10
-3.46897e-10
-3.68835e-10
-3.90782e-10
-4.12715e-10
-4.34648e-10
-4.56603e-10
-4.7852e-10
-5.00462e-10
-5.22427e-10
-5.44354e-10
-5.66293e-10
-5.8824e-10
-6.10169e-10
-6.3212e-10
-6.54063e-10
-6.76007e-10
-6.97936e-10
-7.19882e-10
-7.41828e-10
-7.6377e-10
-7.85712e-10
-8.07654e-10
-8.296e-10
-8.51532e-10
-8.73481e-10
-8.95424e-10
-9.1737e-10
-9.39314e-10
-9.6124e-10
-9.83199e-10
-1.00514e-09
-1.02709e-09
-1.04905e-09
-1.07099e-09
-1.09295e-09
-1.11492e-09
-1.13688e-09
-1.15886e-09
-1.18083e-09
-1.20284e-09
-1.22485e-09
-1.24689e-09
-1.26898e-09
-1.29111e-09
-1.3133e-09
-1.33559e-09
-1.35799e-09
-1.38057e-09
-1.40339e-09
-1.42652e-09
-1.45013e-09
-1.47435e-09
-1.49948e-09
-1.52581e-09
-1.55388e-09
-1.58429e-09
-1.61793e-09
-1.65608e-09
-1.7004e-09
-1.75307e-09
-1.81693e-09
-1.89558e-09
-1.99333e-09
-2.11495e-09
-2.26833e-09
-2.44427e-09
-2.6655e-09
5.18074e-11
-1.42785e-11
-3.72637e-11
-5.9835e-11
-8.25131e-11
-1.04973e-10
-1.27229e-10
-1.49331e-10
-1.71364e-10
-1.93351e-10
-2.15306e-10
-2.37254e-10
-2.59189e-10
-2.81107e-10
-3.03035e-10
-3.24979e-10
-3.46917e-10
-3.68854e-10
-3.90782e-10
-4.12718e-10
-4.34657e-10
-4.56595e-10
-4.78554e-10
-5.00489e-10
-5.22409e-10
-5.44357e-10
-5.66303e-10
-5.88236e-10
-6.10198e-10
-6.32126e-10
-6.54069e-10
-6.76e-10
-6.97961e-10
-7.19895e-10
-7.41823e-10
-7.63771e-10
-7.8572e-10
-8.07653e-10
-8.29596e-10
-8.51545e-10
-8.73481e-10
-8.95422e-10
-9.1736e-10
-9.39315e-10
-9.61262e-10
-9.83206e-10
-1.00515e-09
-1.0271e-09
-1.04904e-09
-1.071e-09
-1.09296e-09
-1.11492e-09
-1.13688e-09
-1.15885e-09
-1.18084e-09
-1.20285e-09
-1.22488e-09
-1.24691e-09
-1.269e-09
-1.29112e-09
-1.3133e-09
-1.3356e-09
-1.35802e-09
-1.3806e-09
-1.40343e-09
-1.4266e-09
-1.45021e-09
-1.4745e-09
-1.49965e-09
-1.52607e-09
-1.55421e-09
-1.58477e-09
-1.61862e-09
-1.657e-09
-1.70166e-09
-1.75476e-09
-1.81914e-09
-1.89839e-09
-1.99699e-09
-2.12009e-09
-2.27594e-09
-2.50391e-09
-2.67904e-09
4.96777e-11
-1.6745e-11
-3.80863e-11
-5.99859e-11
-8.25884e-11
-1.05012e-10
-1.2726e-10
-1.49334e-10
-1.71375e-10
-1.93353e-10
-2.15314e-10
-2.37228e-10
-2.59178e-10
-2.81112e-10
-3.03058e-10
-3.24964e-10
-3.46912e-10
-3.68832e-10
-3.9078e-10
-4.1272e-10
-4.34653e-10
-4.5659e-10
-4.78523e-10
-5.00468e-10
-5.22428e-10
-5.44358e-10
-5.66288e-10
-5.88242e-10
-6.10172e-10
-6.32124e-10
-6.54065e-10
-6.76008e-10
-6.97933e-10
-7.19886e-10
-7.41838e-10
-7.63758e-10
-7.85714e-10
-8.07651e-10
-8.29594e-10
-8.51538e-10
-8.73479e-10
-8.9542e-10
-9.17363e-10
-9.39315e-10
-9.61254e-10
-9.83202e-10
-1.00514e-09
-1.02709e-09
-1.04906e-09
-1.071e-09
-1.09294e-09
-1.11491e-09
-1.13689e-09
-1.15886e-09
-1.18085e-09
-1.20284e-09
-1.22485e-09
-1.24689e-09
-1.26899e-09
-1.29112e-09
-1.31333e-09
-1.33561e-09
-1.35803e-09
-1.38062e-09
-1.40346e-09
-1.42663e-09
-1.45028e-09
-1.47457e-09
-1.49979e-09
-1.52624e-09
-1.55449e-09
-1.58513e-09
-1.61914e-09
-1.65773e-09
-1.70263e-09
-1.75606e-09
-1.82084e-09
-1.90056e-09
-1.99964e-09
-2.12267e-09
-2.27775e-09
-2.50866e-09
-2.68991e-09
4.87142e-11
-1.5561e-11
-3.74845e-11
-5.99887e-11
-8.26341e-11
-1.0504e-10
-1.27264e-10
-1.4937e-10
-1.71375e-10
-1.93364e-10
-2.15299e-10
-2.37259e-10
-2.59193e-10
-2.81108e-10
-3.03029e-10
-3.2498e-10
-3.46912e-10
-3.68855e-10
-3.90774e-10
-4.12715e-10
-4.34654e-10
-4.5661e-10
-4.7855e-10
-5.00476e-10
-5.22408e-10
-5.44346e-10
-5.6631e-10
-5.88238e-10
-6.10192e-10
-6.32122e-10
-6.54064e-10
-6.76001e-10
-6.97961e-10
-7.19895e-10
-7.41819e-10
-7.6377e-10
-7.85714e-10
-8.07649e-10
-8.29593e-10
-8.51534e-10
-8.73478e-10
-8.95419e-10
-9.17363e-10
-9.3931e-10
-9.61247e-10
-9.832e-10
-1.00515e-09
-1.02711e-09
-1.04903e-09
-1.071e-09
-1.09297e-09
-1.11492e-09
-1.13688e-09
-1.15885e-09
-1.18083e-09
-1.20285e-09
-1.22488e-09
-1.24692e-09
-1.269e-09
-1.29112e-09
-1.31331e-09
-1.33563e-09
-1.35804e-09
-1.38064e-09
-1.40349e-09
-1.42668e-09
-1.45032e-09
-1.47466e-09
-1.49987e-09
-1.52639e-09
-1.55466e-09
-1.5854e-09
-1.61951e-09
-1.65826e-09
-1.70333e-09
-1.75697e-09
-1.82201e-09
-1.90209e-09
-2.00157e-09
-2.12559e-09
-2.2807e-09
-2.5138e-09
-2.69655e-09
4.78402e-11
-1.64377e-11
-3.78452e-11
-6.00514e-11
-8.26463e-11
-1.05061e-10
-1.2728e-10
-1.49343e-10
-1.71381e-10
-1.93365e-10
-2.15319e-10
-2.3724e-10
-2.59181e-10
-2.81117e-10
-3.03057e-10
-3.24962e-10
-3.4692e-10
-3.68832e-10
-3.90786e-10
-4.12725e-10
-4.34651e-10
-4.56581e-10
-4.78525e-10
-5.00481e-10
-5.22428e-10
-5.44368e-10
-5.66286e-10
-5.88243e-10
-6.10182e-10
-6.32127e-10
-6.54071e-10
-6.76006e-10
-6.97935e-10
-7.19884e-10
-7.4184e-10
-7.63761e-10
-7.85724e-10
-8.07643e-10
-8.2959e-10
-8.51532e-10
-8.73479e-10
-8.95411e-10
-9.1736e-10
-9.39309e-10
-9.61256e-10
-9.83198e-10
-1.00514e-09
-1.02709e-09
-1.04906e-09
-1.07101e-09
-1.09294e-09
-1.11491e-09
-1.1369e-09
-1.15887e-09
-1.18085e-09
-1.20284e-09
-1.22485e-09
-1.2469e-09
-1.269e-09
-1.29113e-09
-1.31334e-09
-1.33562e-09
-1.35805e-09
-1.38065e-09
-1.40349e-09
-1.42669e-09
-1.45036e-09
-1.47468e-09
-1.49994e-09
-1.52646e-09
-1.55478e-09
-1.58555e-09
-1.61974e-09
-1.65854e-09
-1.70373e-09
-1.7575e-09
-1.82271e-09
-1.90293e-09
-2.0026e-09
-2.12661e-09
-2.2824e-09
-2.51573e-09
-2.70031e-09
4.7813e-11
-1.64354e-11
-3.78484e-11
-6.00388e-11
-8.26518e-11
-1.05052e-10
-1.27277e-10
-1.49371e-10
-1.71379e-10
-1.93363e-10
-2.15305e-10
-2.37253e-10
-2.59193e-10
-2.81106e-10
-3.03027e-10
-3.24971e-10
-3.46913e-10
-3.68851e-10
-3.90762e-10
-4.12709e-10
-4.34658e-10
-4.56615e-10
-4.78547e-10
-5.0047e-10
-5.2241e-10
-5.44345e-10
-5.66306e-10
-5.8824e-10
-6.1018e-10
-6.32119e-10
-6.54056e-10
-6.76006e-10
-6.97954e-10
-7.19884e-10
-7.41827e-10
-7.63776e-10
-7.85698e-10
-8.0765e-10
-8.29589e-10
-8.51538e-10
-8.7347e-10
-8.95423e-10
-9.17358e-10
-9.39311e-10
-9.61252e-10
-9.832e-10
-1.00515e-09
-1.0271e-09
-1.04904e-09
-1.07099e-09
-1.09296e-09
-1.11492e-09
-1.13688e-09
-1.15885e-09
-1.18083e-09
-1.20285e-09
-1.22488e-09
-1.24691e-09
-1.269e-09
-1.29113e-09
-1.31331e-09
-1.33563e-09
-1.35805e-09
-1.38066e-09
-1.4035e-09
-1.4267e-09
-1.45036e-09
-1.4747e-09
-1.49995e-09
-1.52649e-09
-1.55481e-09
-1.58559e-09
-1.61979e-09
-1.65864e-09
-1.70385e-09
-1.75764e-09
-1.82286e-09
-1.90312e-09
-2.0028e-09
-2.12673e-09
-2.28251e-09
-2.51584e-09
-2.70099e-09
4.86812e-11
-1.57353e-11
-3.75247e-11
-6.00035e-11
-8.26253e-11
-1.05052e-10
-1.2726e-10
-1.49358e-10
-1.71362e-10
-1.9336e-10
-2.15313e-10
-2.37246e-10
-2.5918e-10
-2.81126e-10
-3.03046e-10
-3.24966e-10
-3.46922e-10
-3.68838e-10
-3.90784e-10
-4.12727e-10
-4.34651e-10
-4.56582e-10
-4.78526e-10
-5.00481e-10
-5.22428e-10
-5.44368e-10
-5.66291e-10
-5.8824e-10
-6.10178e-10
-6.3213e-10
-6.54077e-10
-6.76007e-10
-6.97939e-10
-7.1988e-10
-7.41827e-10
-7.63768e-10
-7.85731e-10
-8.07648e-10
-8.29589e-10
-8.51526e-10
-8.7348e-10
-8.95421e-10
-9.17361e-10
-9.39309e-10
-9.61254e-10
-9.83202e-10
-1.00514e-09
-1.02709e-09
-1.04906e-09
-1.07101e-09
-1.09295e-09
-1.11492e-09
-1.1369e-09
-1.15886e-09
-1.18086e-09
-1.20285e-09
-1.22485e-09
-1.24692e-09
-1.26899e-09
-1.29113e-09
-1.31334e-09
-1.33562e-09
-1.35805e-09
-1.38064e-09
-1.40349e-09
-1.42668e-09
-1.45036e-09
-1.47468e-09
-1.49993e-09
-1.52646e-09
-1.55477e-09
-1.58554e-09
-1.6197e-09
-1.6585e-09
-1.70366e-09
-1.75737e-09
-1.82253e-09
-1.90262e-09
-2.00215e-09
-2.12609e-09
-2.28139e-09
-2.51415e-09
-2.69909e-09
4.95806e-11
-1.67321e-11
-3.80978e-11
-5.99837e-11
-8.25832e-11
-1.05012e-10
-1.27248e-10
-1.49345e-10
-1.71366e-10
-1.93349e-10
-2.15311e-10
-2.37236e-10
-2.59183e-10
-2.81098e-10
-3.03032e-10
-3.24965e-10
-3.46909e-10
-3.68846e-10
-3.90762e-10
-4.12706e-10
-4.34655e-10
-4.56608e-10
-4.78542e-10
-5.00472e-10
-5.22409e-10
-5.44347e-10
-5.66301e-10
-5.88243e-10
-6.10185e-10
-6.32116e-10
-6.54044e-10
-6.76007e-10
-6.97944e-10
-7.19898e-10
-7.41823e-10
-7.6377e-10
-7.85708e-10
-8.07652e-10
-8.29588e-10
-8.51543e-10
-8.73477e-10
-8.95423e-10
-9.17365e-10
-9.39314e-10