/*--------------------------------*- C++ -*----------------------------------*\
| =========                 |                                                 |
| \\      /  F ield         | OpenFOAM: The Open Source CFD Toolbox           |
|  \\    /   O peration     | Version:  v1906                                 |
|   \\  /    A nd           | Web:      www.OpenFOAM.com                      |
|    \\/     M anipulation  |                                                 |
\*---------------------------------------------------------------------------*/
FoamFile
{
    version     2.0;
    format      ascii;
    class       volScalarField;
    location    "0.22";
    object      p;
}
// * * * * * * * * * * * * * * * * * * * * * * * * * * * * * * * * * * * * * //

dimensions      [0 2 -2 0 0 0 0];


internalField   nonuniform List<scalar> 
243374
(
-6.71741e-16
-1.30123e-09
-8.6197e-10
-8.67168e-10
-9.07727e-10
-9.47088e-10
-9.83344e-10
-1.02414e-09
-1.06174e-09
-1.09752e-09
-1.12778e-09
-1.16172e-09
-1.19166e-09
-1.21918e-09
-1.24561e-09
-1.26892e-09
-1.29265e-09
-1.31566e-09
-1.33656e-09
-1.36149e-09
-1.38417e-09
-1.40638e-09
-1.42949e-09
-1.45097e-09
-1.47131e-09
-1.49624e-09
-1.51507e-09
-1.53866e-09
-1.56139e-09
-1.5834e-09
-1.60498e-09
-1.62713e-09
-1.64938e-09
-1.66979e-09
-1.69364e-09
-1.71614e-09
-1.73595e-09
-1.7605e-09
-1.78027e-09
-1.80265e-09
-1.82426e-09
-1.84806e-09
-1.86761e-09
-1.89197e-09
-1.91311e-09
-1.93702e-09
-1.95686e-09
-1.97823e-09
-2.0021e-09
-2.02405e-09
-2.04678e-09
-2.06736e-09
-2.08798e-09
-2.11082e-09
-2.13048e-09
-2.15422e-09
-2.17686e-09
-2.19788e-09
-2.21861e-09
-2.23997e-09
-2.26081e-09
-2.28297e-09
-2.30677e-09
-2.329e-09
-2.35352e-09
-2.37849e-09
-2.40806e-09
-2.43634e-09
-2.47182e-09
-2.51596e-09
-2.56504e-09
-2.62733e-09
-2.70805e-09
-2.81487e-09
-2.95698e-09
-3.14744e-09
-3.40927e-09
-3.73601e-09
-3.73704e-09
-5.70035e-09
-1.52639e-09
-1.06478e-09
-8.73332e-10
-8.79097e-10
-9.13332e-10
-9.51485e-10
-9.9099e-10
-1.0288e-09
-1.06525e-09
-1.10017e-09
-1.13528e-09
-1.16678e-09
-1.19584e-09
-1.22268e-09
-1.24865e-09
-1.27292e-09
-1.29668e-09
-1.32002e-09
-1.34229e-09
-1.36535e-09
-1.38896e-09
-1.40978e-09
-1.43245e-09
-1.45419e-09
-1.47714e-09
-1.49954e-09
-1.52119e-09
-1.54314e-09
-1.56493e-09
-1.58715e-09
-1.60927e-09
-1.63123e-09
-1.65268e-09
-1.67547e-09
-1.69725e-09
-1.7208e-09
-1.74115e-09
-1.76398e-09
-1.78433e-09
-1.80724e-09
-1.82825e-09
-1.85122e-09
-1.875e-09
-1.89511e-09
-1.91924e-09
-1.94033e-09
-1.96238e-09
-1.98364e-09
-2.0057e-09
-2.02823e-09
-2.05008e-09
-2.07129e-09
-2.09167e-09
-2.11487e-09
-2.13639e-09
-2.15822e-09
-2.17987e-09
-2.2017e-09
-2.22396e-09
-2.24427e-09
-2.26674e-09
-2.28939e-09
-2.31113e-09
-2.33366e-09
-2.35834e-09
-2.38455e-09
-2.4139e-09
-2.44525e-09
-2.48148e-09
-2.52276e-09
-2.57281e-09
-2.63532e-09
-2.71764e-09
-2.8252e-09
-2.97132e-09
-3.16546e-09
-3.43243e-09
-3.76911e-09
-4.03514e-09
-4.23833e-09
-2.01516e-09
-9.87868e-10
-8.63187e-10
-8.78788e-10
-9.09736e-10
-9.44897e-10
-9.82367e-10
-1.02265e-09
-1.05985e-09
-1.09681e-09
-1.13111e-09
-1.16209e-09
-1.19196e-09
-1.21939e-09
-1.24474e-09
-1.26904e-09
-1.29161e-09
-1.31585e-09
-1.3387e-09
-1.3614e-09
-1.38478e-09
-1.40677e-09
-1.42894e-09
-1.45065e-09
-1.47322e-09
-1.49545e-09
-1.51691e-09
-1.53953e-09
-1.56146e-09
-1.58348e-09
-1.60552e-09
-1.62844e-09
-1.65003e-09
-1.6716e-09
-1.69387e-09
-1.71601e-09
-1.73881e-09
-1.76034e-09
-1.78313e-09
-1.80409e-09
-1.82744e-09
-1.84887e-09
-1.87085e-09
-1.89352e-09
-1.91499e-09
-1.93677e-09
-1.95854e-09
-1.98011e-09
-2.00251e-09
-2.02294e-09
-2.04598e-09
-2.06799e-09
-2.0899e-09
-2.11084e-09
-2.1329e-09
-2.1547e-09
-2.17615e-09
-2.19838e-09
-2.22007e-09
-2.24171e-09
-2.26317e-09
-2.28595e-09
-2.30794e-09
-2.32985e-09
-2.35566e-09
-2.38256e-09
-2.41142e-09
-2.44375e-09
-2.48074e-09
-2.52241e-09
-2.57449e-09
-2.63874e-09
-2.72246e-09
-2.8335e-09
-2.98367e-09
-3.18213e-09
-3.4526e-09
-3.80644e-09
-4.15442e-09
-3.77704e-09
-7.51459e-10
2.39982e-09
-6.60623e-10
-8.51616e-10
-8.75945e-10
-9.06452e-10
-9.42553e-10
-9.81073e-10
-1.02122e-09
-1.05979e-09
-1.09644e-09
-1.13204e-09
-1.16529e-09
-1.19423e-09
-1.22058e-09
-1.24568e-09
-1.26991e-09
-1.29465e-09
-1.316e-09
-1.33898e-09
-1.36205e-09
-1.38462e-09
-1.40706e-09
-1.4292e-09
-1.45193e-09
-1.47329e-09
-1.49615e-09
-1.51858e-09
-1.53983e-09
-1.56173e-09
-1.58395e-09
-1.60578e-09
-1.62831e-09
-1.6499e-09
-1.67226e-09
-1.69386e-09
-1.71573e-09
-1.73767e-09
-1.75919e-09
-1.78165e-09
-1.80346e-09
-1.82618e-09
-1.8479e-09
-1.87008e-09
-1.89265e-09
-1.91498e-09
-1.93755e-09
-1.9585e-09
-1.98021e-09
-2.00268e-09
-2.02433e-09
-2.04648e-09
-2.06823e-09
-2.09012e-09
-2.11234e-09
-2.1333e-09
-2.15524e-09
-2.17706e-09
-2.19888e-09
-2.22043e-09
-2.24197e-09
-2.26384e-09
-2.28622e-09
-2.309e-09
-2.33257e-09
-2.35696e-09
-2.38361e-09
-2.41288e-09
-2.44599e-09
-2.48248e-09
-2.52516e-09
-2.57715e-09
-2.64275e-09
-2.7285e-09
-2.84272e-09
-2.99525e-09
-3.19937e-09
-3.47335e-09
-3.84093e-09
-4.48474e-09
-8.22459e-09
-5.94212e-09
-3.26519e-10
-2.50837e-09
-1.03573e-09
-8.56666e-10
-8.74383e-10
-9.03455e-10
-9.3907e-10
-9.78277e-10
-1.01835e-09
-1.0574e-09
-1.09497e-09
-1.13118e-09
-1.16295e-09
-1.19223e-09
-1.21936e-09
-1.24438e-09
-1.2686e-09
-1.29211e-09
-1.31503e-09
-1.33807e-09
-1.36059e-09
-1.38362e-09
-1.40605e-09
-1.42812e-09
-1.45034e-09
-1.47241e-09
-1.49484e-09
-1.51699e-09
-1.5389e-09
-1.56067e-09
-1.58267e-09
-1.60452e-09
-1.62726e-09
-1.64859e-09
-1.67102e-09
-1.69247e-09
-1.71425e-09
-1.73658e-09
-1.75828e-09
-1.78089e-09
-1.80326e-09
-1.82565e-09
-1.84721e-09
-1.86907e-09
-1.89097e-09
-1.91336e-09
-1.93551e-09
-1.95694e-09
-1.97921e-09
-2.00157e-09
-2.02312e-09
-2.04482e-09
-2.06701e-09
-2.08903e-09
-2.11082e-09
-2.1323e-09
-2.15402e-09
-2.17569e-09
-2.1978e-09
-2.21921e-09
-2.24142e-09
-2.26334e-09
-2.28563e-09
-2.30813e-09
-2.33176e-09
-2.35653e-09
-2.38361e-09
-2.41303e-09
-2.44662e-09
-2.48363e-09
-2.52645e-09
-2.57962e-09
-2.64615e-09
-2.73339e-09
-2.85012e-09
-3.00614e-09
-3.2144e-09
-3.49299e-09
-3.86318e-09
-4.21084e-09
-3.4748e-09
-5.87178e-09
-6.726e-09
2.4138e-10
1.05845e-09
-6.6664e-10
-8.47798e-10
-8.73988e-10
-9.01945e-10
-9.36965e-10
-9.76186e-10
-1.01692e-09
-1.05637e-09
-1.09477e-09
-1.13087e-09
-1.163e-09
-1.19216e-09
-1.21905e-09
-1.24424e-09
-1.26821e-09
-1.29195e-09
-1.31517e-09
-1.33764e-09
-1.36055e-09
-1.38342e-09
-1.40565e-09
-1.42802e-09
-1.45003e-09
-1.4723e-09
-1.49449e-09
-1.5169e-09
-1.53847e-09
-1.56054e-09
-1.5823e-09
-1.60438e-09
-1.62663e-09
-1.64842e-09
-1.67009e-09
-1.69147e-09
-1.71369e-09
-1.73615e-09
-1.75814e-09
-1.78058e-09
-1.80319e-09
-1.82559e-09
-1.84706e-09
-1.86887e-09
-1.89075e-09
-1.91253e-09
-1.93467e-09
-1.95634e-09
-1.97893e-09
-2.00095e-09
-2.02286e-09
-2.04483e-09
-2.06676e-09
-2.08874e-09
-2.11055e-09
-2.13209e-09
-2.15383e-09
-2.17559e-09
-2.19732e-09
-2.21941e-09
-2.24124e-09
-2.26341e-09
-2.28556e-09
-2.30847e-09
-2.33236e-09
-2.35715e-09
-2.38386e-09
-2.41385e-09
-2.44762e-09
-2.48477e-09
-2.52866e-09
-2.5819e-09
-2.64943e-09
-2.73808e-09
-2.85663e-09
-3.01526e-09
-3.2256e-09
-3.50721e-09
-3.88752e-09
-4.54005e-09
-6.90343e-09
-6.0251e-09
-6.76826e-09
-3.13143e-10
-1.22715e-09
-8.85755e-10
-8.51096e-10
-8.72918e-10
-9.00788e-10
-9.35828e-10
-9.75363e-10
-1.01606e-09
-1.05564e-09
-1.09432e-09
-1.13041e-09
-1.16267e-09
-1.19183e-09
-1.21867e-09
-1.24394e-09
-1.26787e-09
-1.29176e-09
-1.31506e-09
-1.33722e-09
-1.36028e-09
-1.38298e-09
-1.4053e-09
-1.42776e-09
-1.44979e-09
-1.47212e-09
-1.49404e-09
-1.51663e-09
-1.53826e-09
-1.56016e-09
-1.58194e-09
-1.60419e-09
-1.62623e-09
-1.64783e-09
-1.66957e-09
-1.69117e-09
-1.7136e-09
-1.73576e-09
-1.75771e-09
-1.78e-09
-1.80219e-09
-1.82405e-09
-1.84575e-09
-1.86787e-09
-1.89009e-09
-1.91195e-09
-1.93419e-09
-1.95613e-09
-1.97864e-09
-2.00069e-09
-2.02261e-09
-2.04456e-09
-2.0665e-09
-2.08859e-09
-2.11036e-09
-2.13188e-09
-2.15362e-09
-2.17517e-09
-2.1971e-09
-2.21918e-09
-2.24118e-09
-2.26334e-09
-2.28563e-09
-2.30868e-09
-2.33258e-09
-2.35766e-09
-2.38422e-09
-2.41478e-09
-2.44852e-09
-2.48598e-09
-2.53027e-09
-2.58427e-09
-2.65223e-09
-2.74178e-09
-2.86167e-09
-3.02186e-09
-3.23374e-09
-3.51697e-09
-3.8968e-09
-4.36251e-09
-4.65645e-09
-5.9526e-09
-6.8208e-09
-9.14095e-10
-1.28722e-09
-8.8165e-10
-8.51184e-10
-8.72964e-10
-9.00887e-10
-9.35842e-10
-9.75406e-10
-1.01607e-09
-1.05566e-09
-1.09425e-09
-1.13047e-09
-1.16279e-09
-1.1917e-09
-1.21882e-09
-1.24407e-09
-1.26804e-09
-1.29193e-09
-1.315e-09
-1.33722e-09
-1.36032e-09
-1.38294e-09
-1.40544e-09
-1.42783e-09
-1.44968e-09
-1.47221e-09
-1.49406e-09
-1.51658e-09
-1.53837e-09
-1.56019e-09
-1.58209e-09
-1.6043e-09
-1.62632e-09
-1.64802e-09
-1.66961e-09
-1.69149e-09
-1.71396e-09
-1.73601e-09
-1.75794e-09
-1.78047e-09
-1.80278e-09
-1.8248e-09
-1.84638e-09
-1.86809e-09
-1.89015e-09
-1.91214e-09
-1.93442e-09
-1.95635e-09
-1.97878e-09
-2.0008e-09
-2.02283e-09
-2.0446e-09
-2.06658e-09
-2.08867e-09
-2.11047e-09
-2.13207e-09
-2.15374e-09
-2.17542e-09
-2.1973e-09
-2.21949e-09
-2.24148e-09
-2.2637e-09
-2.28603e-09
-2.30916e-09
-2.33324e-09
-2.35844e-09
-2.38521e-09
-2.41579e-09
-2.4496e-09
-2.48734e-09
-2.53201e-09
-2.58635e-09
-2.65472e-09
-2.74471e-09
-2.86513e-09
-3.0257e-09
-3.23804e-09
-3.52177e-09
-3.90201e-09
-4.36317e-09
-4.71904e-09
-5.86254e-09
-6.81683e-09
-1.36306e-09
9.87004e-10
-6.87452e-10
-8.48969e-10
-8.73959e-10
-9.02163e-10
-9.37012e-10
-9.76317e-10
-1.0167e-09
-1.05633e-09
-1.09455e-09
-1.13086e-09
-1.16328e-09
-1.19207e-09
-1.21949e-09
-1.24476e-09
-1.26863e-09
-1.29213e-09
-1.31592e-09
-1.33788e-09
-1.36049e-09
-1.38323e-09
-1.40588e-09
-1.4282e-09
-1.45012e-09
-1.47292e-09
-1.49435e-09
-1.51717e-09
-1.53857e-09
-1.56036e-09
-1.58254e-09
-1.60478e-09
-1.62694e-09
-1.64856e-09
-1.6701e-09
-1.69174e-09
-1.71401e-09
-1.73583e-09
-1.75766e-09
-1.77992e-09
-1.80237e-09
-1.82458e-09
-1.84639e-09
-1.86793e-09
-1.8902e-09
-1.91245e-09
-1.93509e-09
-1.95702e-09
-1.97931e-09
-2.00119e-09
-2.02322e-09
-2.04506e-09
-2.0668e-09
-2.08887e-09
-2.111e-09
-2.13255e-09
-2.15421e-09
-2.17596e-09
-2.19772e-09
-2.22001e-09
-2.24205e-09
-2.26426e-09
-2.28673e-09
-2.30987e-09
-2.33388e-09
-2.35939e-09
-2.38652e-09
-2.41657e-09
-2.45083e-09
-2.48882e-09
-2.53375e-09
-2.58786e-09
-2.6568e-09
-2.74685e-09
-2.86697e-09
-3.02686e-09
-3.2387e-09
-3.52185e-09
-3.90424e-09
-4.58382e-09
-6.99887e-09
-5.89045e-09
-6.83876e-09
-1.35694e-09
-2.42636e-09
-9.98664e-10
-8.55559e-10
-8.74611e-10
-9.03586e-10
-9.39193e-10
-9.78561e-10
-1.018e-09
-1.05738e-09
-1.09497e-09
-1.13105e-09
-1.16312e-09
-1.192e-09
-1.2197e-09
-1.24476e-09
-1.26903e-09
-1.29243e-09
-1.31463e-09
-1.33807e-09
-1.36068e-09
-1.38311e-09
-1.40614e-09
-1.42802e-09
-1.4505e-09
-1.47208e-09
-1.4944e-09
-1.51626e-09
-1.53873e-09
-1.56077e-09
-1.58245e-09
-1.60501e-09
-1.6264e-09
-1.64903e-09
-1.67103e-09
-1.69289e-09
-1.71505e-09
-1.73644e-09
-1.7584e-09
-1.78055e-09
-1.80266e-09
-1.82488e-09
-1.8471e-09
-1.8685e-09
-1.89134e-09
-1.91353e-09
-1.93612e-09
-1.95748e-09
-1.97934e-09
-2.00144e-09
-2.02299e-09
-2.04543e-09
-2.06719e-09
-2.08886e-09
-2.11104e-09
-2.13245e-09
-2.15435e-09
-2.17599e-09
-2.1975e-09
-2.22045e-09
-2.24169e-09
-2.26453e-09
-2.28706e-09
-2.31034e-09
-2.33447e-09
-2.36011e-09
-2.38713e-09
-2.41735e-09
-2.45191e-09
-2.48953e-09
-2.53531e-09
-2.58955e-09
-2.65835e-09
-2.74788e-09
-2.8671e-09
-3.02604e-09
-3.23636e-09
-3.51738e-09
-3.88852e-09
-4.20004e-09
-3.45526e-09
-5.832e-09
-6.86977e-09
-8.16876e-10
2.38265e-09
-6.8924e-10
-8.5247e-10
-8.76061e-10
-9.06274e-10
-9.42769e-10
-9.81354e-10
-1.02099e-09
-1.05958e-09
-1.09736e-09
-1.13293e-09
-1.16542e-09
-1.19461e-09
-1.22137e-09
-1.24639e-09
-1.27055e-09
-1.29363e-09
-1.31782e-09
-1.33968e-09
-1.36138e-09
-1.38431e-09
-1.40712e-09
-1.42888e-09
-1.45184e-09
-1.47465e-09
-1.49666e-09
-1.51895e-09
-1.54033e-09
-1.56168e-09
-1.58401e-09
-1.60608e-09
-1.6293e-09
-1.65058e-09
-1.67307e-09
-1.6949e-09
-1.71741e-09
-1.7378e-09
-1.75942e-09
-1.78131e-09
-1.80338e-09
-1.82551e-09
-1.84824e-09
-1.87022e-09
-1.89316e-09
-1.91558e-09
-1.93771e-09
-1.95885e-09
-1.98089e-09
-2.00346e-09
-2.0249e-09
-2.0469e-09
-2.06783e-09
-2.09086e-09
-2.1128e-09
-2.13437e-09
-2.15625e-09
-2.17781e-09
-2.19862e-09
-2.22197e-09
-2.24459e-09
-2.26567e-09
-2.28902e-09
-2.31239e-09
-2.33662e-09
-2.36197e-09
-2.38973e-09
-2.41945e-09
-2.45477e-09
-2.49135e-09
-2.53678e-09
-2.59128e-09
-2.65985e-09
-2.74852e-09
-2.86646e-09
-3.02222e-09
-3.23018e-09
-3.50737e-09
-3.87804e-09
-4.55174e-09
-8.26601e-09
-5.94857e-09
-6.73622e-09
-7.2778e-10
-2.05567e-09
-9.8993e-10
-8.64232e-10
-8.78734e-10
-9.09481e-10
-9.45189e-10
-9.82973e-10
-1.02135e-09
-1.06015e-09
-1.09639e-09
-1.13103e-09
-1.16289e-09
-1.19151e-09
-1.21873e-09
-1.24376e-09
-1.26813e-09
-1.29252e-09
-1.315e-09
-1.33721e-09
-1.36127e-09
-1.38421e-09
-1.40598e-09
-1.42856e-09
-1.45002e-09
-1.4723e-09
-1.49406e-09
-1.51609e-09
-1.53815e-09
-1.56033e-09
-1.58239e-09
-1.60503e-09
-1.62623e-09
-1.64862e-09
-1.67092e-09
-1.69294e-09
-1.71474e-09
-1.73813e-09
-1.75964e-09
-1.78183e-09
-1.80344e-09
-1.82542e-09
-1.84844e-09
-1.87048e-09
-1.89154e-09
-1.91371e-09
-1.93489e-09
-1.95722e-09
-1.97918e-09
-2.00147e-09
-2.02302e-09
-2.04419e-09
-2.06742e-09
-2.08827e-09
-2.11045e-09
-2.13162e-09
-2.15391e-09
-2.17605e-09
-2.1985e-09
-2.22056e-09
-2.24198e-09
-2.26517e-09
-2.28675e-09
-2.31101e-09
-2.33503e-09
-2.35959e-09
-2.38785e-09
-2.41839e-09
-2.45271e-09
-2.4915e-09
-2.53735e-09
-2.59172e-09
-2.66025e-09
-2.74811e-09
-2.86375e-09
-3.0174e-09
-3.22104e-09
-3.49603e-09
-3.85393e-09
-4.20313e-09
-3.84973e-09
-5.79384e-09
-1.54518e-09
-1.06979e-09
-8.73705e-10
-8.78868e-10
-9.16023e-10
-9.51933e-10
-9.90323e-10
-1.02788e-09
-1.06536e-09
-1.10105e-09
-1.13445e-09
-1.16656e-09
-1.19539e-09
-1.22379e-09
-1.24813e-09
-1.27356e-09
-1.29621e-09
-1.31897e-09
-1.34174e-09
-1.36603e-09
-1.38832e-09
-1.41054e-09
-1.43289e-09
-1.45393e-09
-1.47605e-09
-1.49824e-09
-1.52058e-09
-1.54261e-09
-1.56475e-09
-1.5863e-09
-1.60841e-09
-1.63116e-09
-1.65274e-09
-1.67467e-09
-1.69682e-09
-1.71934e-09
-1.74221e-09
-1.76466e-09
-1.78523e-09
-1.80708e-09
-1.83038e-09
-1.85257e-09
-1.8741e-09
-1.89512e-09
-1.91762e-09
-1.94086e-09
-1.96115e-09
-1.9838e-09
-2.00532e-09
-2.02672e-09
-2.05036e-09
-2.07151e-09
-2.09216e-09
-2.1149e-09
-2.13752e-09
-2.15826e-09
-2.18013e-09
-2.20251e-09
-2.22503e-09
-2.24549e-09
-2.26917e-09
-2.29156e-09
-2.31496e-09
-2.33888e-09
-2.36579e-09
-2.39232e-09
-2.42283e-09
-2.45731e-09
-2.49703e-09
-2.54054e-09
-2.59496e-09
-2.6616e-09
-2.74807e-09
-2.86079e-09
-3.01277e-09
-3.21213e-09
-3.48356e-09
-3.82576e-09
-4.09747e-09
-4.30494e-09
-1.60093e-11
-1.30347e-09
-8.62705e-10
-8.68143e-10
-9.08034e-10
-9.46727e-10
-9.84848e-10
-1.02157e-09
-1.06156e-09
-1.09762e-09
-1.13196e-09
-1.16311e-09
-1.1913e-09
-1.21786e-09
-1.24409e-09
-1.26681e-09
-1.2925e-09
-1.31557e-09
-1.33843e-09
-1.36234e-09
-1.38382e-09
-1.40484e-09
-1.42651e-09
-1.45071e-09
-1.47412e-09
-1.49446e-09
-1.516e-09
-1.53883e-09
-1.55781e-09
-1.5827e-09
-1.6065e-09
-1.6268e-09
-1.64934e-09
-1.67231e-09
-1.69309e-09
-1.71541e-09
-1.7397e-09
-1.76103e-09
-1.78247e-09
-1.80379e-09
-1.82604e-09
-1.8467e-09
-1.87039e-09
-1.89225e-09
-1.91402e-09
-1.93279e-09
-1.95809e-09
-1.97898e-09
-2.00299e-09
-2.02371e-09
-2.04441e-09
-2.06537e-09
-2.08959e-09
-2.11248e-09
-2.1323e-09
-2.15477e-09
-2.1768e-09
-2.1993e-09
-2.21955e-09
-2.2426e-09
-2.2657e-09
-2.28836e-09
-2.31182e-09
-2.33725e-09
-2.35828e-09
-2.38889e-09
-2.41728e-09
-2.45452e-09
-2.49177e-09
-2.53602e-09
-2.58928e-09
-2.65824e-09
-2.74278e-09
-2.85612e-09
-3.0049e-09
-3.20142e-09
-3.46861e-09
-3.80148e-09
-3.80758e-09
-5.7777e-09
-4.97643e-11
-9.02915e-10
-8.68344e-10
-8.91776e-10
-9.17811e-10
-9.5384e-10
-9.89775e-10
-1.02716e-09
-1.06305e-09
-1.09719e-09
-1.12844e-09
-1.16093e-09
-1.19043e-09
-1.21842e-09
-1.244e-09
-1.26795e-09
-1.29179e-09
-1.31568e-09
-1.34107e-09
-1.36068e-09
-1.38332e-09
-1.40615e-09
-1.42832e-09
-1.44834e-09
-1.47389e-09
-1.49477e-09
-1.51741e-09
-1.53738e-09
-1.56041e-09
-1.58449e-09
-1.60426e-09
-1.62699e-09
-1.6475e-09
-1.67107e-09
-1.69394e-09
-1.71502e-09
-1.73614e-09
-1.75759e-09
-1.78101e-09
-1.80286e-09
-1.82318e-09
-1.84671e-09
-1.86817e-09
-1.89135e-09
-1.9146e-09
-1.93437e-09
-1.95772e-09
-1.97772e-09
-2.00108e-09
-2.02358e-09
-2.04398e-09
-2.06709e-09
-2.08861e-09
-2.10985e-09
-2.13069e-09
-2.15522e-09
-2.17457e-09
-2.19352e-09
-2.21672e-09
-2.24012e-09
-2.26044e-09
-2.2816e-09
-2.30333e-09
-2.32593e-09
-2.34722e-09
-2.37203e-09
-2.39699e-09
-2.42361e-09
-2.4584e-09
-2.49246e-09
-2.53272e-09
-2.58616e-09
-2.65056e-09
-2.73625e-09
-2.84724e-09
-2.99697e-09
-3.20954e-09
-3.49571e-09
-3.84504e-09
-5.283e-09
-1.53678e-09
-1.83045e-09
-8.40979e-10
-8.64709e-10
-8.96193e-10
-9.27606e-10
-9.60406e-10
-9.9477e-10
-1.03011e-09
-1.06406e-09
-1.09859e-09
-1.13175e-09
-1.16273e-09
-1.19316e-09
-1.22082e-09
-1.24768e-09
-1.27188e-09
-1.29573e-09
-1.31855e-09
-1.3418e-09
-1.36419e-09
-1.38594e-09
-1.40919e-09
-1.43134e-09
-1.45424e-09
-1.47583e-09
-1.49751e-09
-1.51982e-09
-1.54275e-09
-1.56354e-09
-1.58628e-09
-1.60834e-09
-1.62953e-09
-1.65131e-09
-1.67442e-09
-1.69638e-09
-1.71712e-09
-1.73987e-09
-1.76217e-09
-1.78352e-09
-1.80525e-09
-1.82948e-09
-1.84996e-09
-1.87097e-09
-1.89544e-09
-1.91593e-09
-1.93803e-09
-1.96044e-09
-1.98238e-09
-2.00584e-09
-2.02514e-09
-2.04716e-09
-2.07004e-09
-2.09107e-09
-2.11333e-09
-2.13588e-09
-2.15548e-09
-2.17796e-09
-2.19993e-09
-2.2202e-09
-2.24226e-09
-2.26613e-09
-2.28618e-09
-2.30606e-09
-2.3292e-09
-2.35284e-09
-2.37535e-09
-2.40203e-09
-2.43239e-09
-2.46158e-09
-2.49738e-09
-2.54079e-09
-2.59257e-09
-2.66021e-09
-2.74877e-09
-2.86452e-09
-3.02494e-09
-3.2475e-09
-3.55808e-09
-3.98752e-09
-3.59587e-09
-4.9804e-09
-7.14013e-10
5.30006e-10
-7.72652e-10
-8.56991e-10
-8.90188e-10
-9.21864e-10
-9.54766e-10
-9.87945e-10
-1.02299e-09
-1.05872e-09
-1.0936e-09
-1.12861e-09
-1.16195e-09
-1.19054e-09
-1.21888e-09
-1.24487e-09
-1.26932e-09
-1.29357e-09
-1.31685e-09
-1.33923e-09
-1.36268e-09
-1.38415e-09
-1.40701e-09
-1.42994e-09
-1.45096e-09
-1.47299e-09
-1.49457e-09
-1.51744e-09
-1.53986e-09
-1.56221e-09
-1.58391e-09
-1.60334e-09
-1.62688e-09
-1.65002e-09
-1.67254e-09
-1.69401e-09
-1.71543e-09
-1.73755e-09
-1.75891e-09
-1.78141e-09
-1.80347e-09
-1.82642e-09
-1.84731e-09
-1.86973e-09
-1.89138e-09
-1.9145e-09
-1.93511e-09
-1.95904e-09
-1.98037e-09
-2.0023e-09
-2.0246e-09
-2.04432e-09
-2.06804e-09
-2.09027e-09
-2.11213e-09
-2.13236e-09
-2.15394e-09
-2.17489e-09
-2.19768e-09
-2.21911e-09
-2.24087e-09
-2.26158e-09
-2.28348e-09
-2.30554e-09
-2.32793e-09
-2.35067e-09
-2.37601e-09
-2.40053e-09
-2.43165e-09
-2.46357e-09
-2.50043e-09
-2.54387e-09
-2.60071e-09
-2.67182e-09
-2.76743e-09
-2.89181e-09
-3.06205e-09
-3.29721e-09
-3.62346e-09
-4.12784e-09
-6.03323e-09
-5.30708e-09
-5.85013e-09
-7.1688e-10
-6.4452e-10
-7.77733e-10
-8.52654e-10
-8.83373e-10
-9.15868e-10
-9.49954e-10
-9.83091e-10
-1.02144e-09
-1.05776e-09
-1.09349e-09
-1.1293e-09
-1.15848e-09
-1.19114e-09
-1.21975e-09
-1.24457e-09
-1.27058e-09
-1.29233e-09
-1.31758e-09
-1.34025e-09
-1.36221e-09
-1.38411e-09
-1.40529e-09
-1.43068e-09
-1.45304e-09
-1.47368e-09
-1.49502e-09
-1.51577e-09
-1.54056e-09
-1.56293e-09
-1.58371e-09
-1.60394e-09
-1.62702e-09
-1.65102e-09
-1.67373e-09
-1.69479e-09
-1.71365e-09
-1.73831e-09
-1.75975e-09
-1.77958e-09
-1.80066e-09
-1.82659e-09
-1.84669e-09
-1.86939e-09
-1.89342e-09
-1.91194e-09
-1.93528e-09
-1.95927e-09
-1.98109e-09
-2.00306e-09
-2.0216e-09
-2.04578e-09
-2.06826e-09
-2.09102e-09
-2.10911e-09
-2.13325e-09
-2.15533e-09
-2.17509e-09
-2.19874e-09
-2.21711e-09
-2.24087e-09
-2.26286e-09
-2.283e-09
-2.30657e-09
-2.32703e-09
-2.35251e-09
-2.37627e-09
-2.40318e-09
-2.43343e-09
-2.46527e-09
-2.5041e-09
-2.55149e-09
-2.60992e-09
-2.6856e-09
-2.78633e-09
-2.91736e-09
-3.09728e-09
-3.34353e-09
-3.68165e-09
-4.19169e-09
-4.94028e-09
-5.35045e-09
-6.12349e-09
-7.47264e-10
-4.79716e-10
-7.37004e-10
-8.47541e-10
-8.77416e-10
-9.1343e-10
-9.5188e-10
-9.92194e-10
-1.0282e-09
-1.06553e-09
-1.10109e-09
-1.13296e-09
-1.16744e-09
-1.1941e-09
-1.22163e-09
-1.24936e-09
-1.27216e-09
-1.29859e-09
-1.31917e-09
-1.34154e-09
-1.36431e-09
-1.38756e-09
-1.41302e-09
-1.43226e-09
-1.45429e-09
-1.47541e-09
-1.50044e-09
-1.52333e-09
-1.54135e-09
-1.56448e-09
-1.58669e-09
-1.61099e-09
-1.63216e-09
-1.65279e-09
-1.67298e-09
-1.69699e-09
-1.72281e-09
-1.73965e-09
-1.763e-09
-1.78584e-09
-1.80883e-09
-1.82942e-09
-1.85242e-09
-1.87139e-09
-1.89516e-09
-1.92065e-09
-1.94144e-09
-1.96038e-09
-1.98209e-09
-2.00515e-09
-2.03029e-09
-2.05052e-09
-2.07043e-09
-2.09164e-09
-2.1172e-09
-2.13472e-09
-2.15694e-09
-2.18112e-09
-2.20077e-09
-2.22475e-09
-2.24286e-09
-2.26506e-09
-2.28841e-09
-2.30883e-09
-2.33543e-09
-2.35587e-09
-2.38084e-09
-2.41109e-09
-2.43962e-09
-2.47747e-09
-2.51845e-09
-2.56697e-09
-2.6293e-09
-2.70941e-09
-2.81485e-09
-2.954e-09
-3.14193e-09
-3.39529e-09
-3.73836e-09
-4.29941e-09
-5.18173e-09
-5.48213e-09
-6.48743e-09
-8.29193e-10
-1.61899e-09
-8.68258e-10
-8.58753e-10
-8.80842e-10
-9.21796e-10
-9.61471e-10
-1.00151e-09
-1.03804e-09
-1.07365e-09
-1.10772e-09
-1.14164e-09
-1.17108e-09
-1.19954e-09
-1.22656e-09
-1.25211e-09
-1.27609e-09
-1.30007e-09
-1.3231e-09
-1.3488e-09
-1.36814e-09
-1.39378e-09
-1.41423e-09
-1.43537e-09
-1.45805e-09
-1.48101e-09
-1.50208e-09
-1.52525e-09
-1.54769e-09
-1.56801e-09
-1.58942e-09
-1.61235e-09
-1.63624e-09
-1.65653e-09
-1.68037e-09
-1.70007e-09
-1.72476e-09
-1.7473e-09
-1.76727e-09
-1.79269e-09
-1.8136e-09
-1.83641e-09
-1.85872e-09
-1.87938e-09
-1.90015e-09
-1.92292e-09
-1.94296e-09
-1.96769e-09
-1.9882e-09
-2.00822e-09
-2.03223e-09
-2.05261e-09
-2.07297e-09
-2.09879e-09
-2.11808e-09
-2.14091e-09
-2.16043e-09
-2.18268e-09
-2.20422e-09
-2.22595e-09
-2.24862e-09
-2.27023e-09
-2.29415e-09
-2.31345e-09
-2.33761e-09
-2.35924e-09
-2.38807e-09
-2.41531e-09
-2.45093e-09
-2.48841e-09
-2.52953e-09
-2.58127e-09
-2.64549e-09
-2.72702e-09
-2.83478e-09
-2.97774e-09
-3.17205e-09
-3.43351e-09
-3.78004e-09
-4.23539e-09
-4.12451e-09
-5.4932e-09
-6.59955e-09
-8.43826e-10
-1.61991e-09
-8.90872e-10
-8.58881e-10
-8.83604e-10
-9.22568e-10
-9.61634e-10
-1.00057e-09
-1.03771e-09
-1.07216e-09
-1.10629e-09
-1.13887e-09
-1.16938e-09
-1.19771e-09
-1.22443e-09
-1.24998e-09
-1.27332e-09
-1.29692e-09
-1.32022e-09
-1.34465e-09
-1.36565e-09
-1.38972e-09
-1.40968e-09
-1.43285e-09
-1.45516e-09
-1.47677e-09
-1.49994e-09
-1.52109e-09
-1.54308e-09
-1.56536e-09
-1.58733e-09
-1.61077e-09
-1.63334e-09
-1.65524e-09
-1.67615e-09
-1.69924e-09
-1.72133e-09
-1.74494e-09
-1.76559e-09
-1.78986e-09
-1.81153e-09
-1.83405e-09
-1.85612e-09
-1.87728e-09
-1.89751e-09
-1.91943e-09
-1.9405e-09
-1.96349e-09
-1.9845e-09
-2.00534e-09
-2.02778e-09
-2.05014e-09
-2.07089e-09
-2.0944e-09
-2.11538e-09
-2.13626e-09
-2.15835e-09
-2.18003e-09
-2.20101e-09
-2.22491e-09
-2.24584e-09
-2.26762e-09
-2.2906e-09
-2.31107e-09
-2.33446e-09
-2.3589e-09
-2.38716e-09
-2.41718e-09
-2.44932e-09
-2.48823e-09
-2.53163e-09
-2.58463e-09
-2.65058e-09
-2.73465e-09
-2.84477e-09
-2.99172e-09
-3.19127e-09
-3.4596e-09
-3.81286e-09
-4.25169e-09
-4.162e-09
-5.52226e-09
-6.68183e-09
-8.28624e-10
-1.03615e-09
-8.03764e-10
-8.52109e-10
-8.84678e-10
-9.22665e-10
-9.61204e-10
-9.99744e-10
-1.03711e-09
-1.07193e-09
-1.10606e-09
-1.13926e-09
-1.17167e-09
-1.20029e-09
-1.22712e-09
-1.25284e-09
-1.27625e-09
-1.30049e-09
-1.32288e-09
-1.34462e-09
-1.36786e-09
-1.38998e-09
-1.41233e-09
-1.4348e-09
-1.45766e-09
-1.47904e-09
-1.50246e-09
-1.52396e-09
-1.54581e-09
-1.56746e-09
-1.58989e-09
-1.61136e-09
-1.63371e-09
-1.65561e-09
-1.67821e-09
-1.69937e-09
-1.72134e-09
-1.74318e-09
-1.7653e-09
-1.78802e-09
-1.81024e-09
-1.83253e-09
-1.85481e-09
-1.87578e-09
-1.89704e-09
-1.9199e-09
-1.94358e-09
-1.96354e-09
-1.98651e-09
-2.00777e-09
-2.02819e-09
-2.05276e-09
-2.0732e-09
-2.09616e-09
-2.118e-09
-2.13895e-09
-2.16059e-09
-2.18282e-09
-2.20356e-09
-2.22554e-09
-2.24757e-09
-2.2701e-09
-2.29101e-09
-2.31412e-09
-2.33821e-09
-2.36227e-09
-2.38928e-09
-2.42139e-09
-2.45435e-09
-2.49156e-09
-2.53571e-09
-2.58891e-09
-2.65541e-09
-2.74083e-09
-2.85338e-09
-3.00254e-09
-3.20514e-09
-3.47988e-09
-3.84647e-09
-4.36517e-09
-4.78069e-09
-5.91167e-09
-6.74149e-09
-8.36321e-10
-1.85952e-09
-9.28811e-10
-8.56033e-10
-8.82799e-10
-9.2103e-10
-9.5971e-10
-9.98102e-10
-1.03518e-09
-1.07039e-09
-1.10478e-09
-1.13825e-09
-1.17043e-09
-1.19991e-09
-1.22656e-09
-1.25086e-09
-1.27506e-09
-1.29854e-09
-1.32138e-09
-1.34451e-09
-1.36605e-09
-1.38947e-09
-1.4115e-09
-1.4339e-09
-1.4565e-09
-1.47761e-09
-1.50069e-09
-1.52134e-09
-1.54487e-09
-1.56594e-09
-1.58831e-09
-1.61018e-09
-1.63281e-09
-1.65454e-09
-1.67634e-09
-1.69757e-09
-1.7199e-09
-1.7417e-09
-1.76445e-09
-1.78673e-09
-1.80901e-09
-1.83117e-09
-1.85351e-09
-1.87431e-09
-1.89533e-09
-1.91826e-09
-1.94134e-09
-1.96255e-09
-1.9852e-09
-2.00699e-09
-2.02805e-09
-2.0509e-09
-2.07176e-09
-2.09517e-09
-2.11593e-09
-2.13827e-09
-2.15919e-09
-2.18092e-09
-2.20262e-09
-2.2248e-09
-2.2469e-09
-2.26897e-09
-2.29069e-09
-2.31308e-09
-2.33642e-09
-2.36183e-09
-2.39015e-09
-2.42115e-09
-2.45501e-09
-2.49311e-09
-2.53773e-09
-2.59192e-09
-2.65949e-09
-2.74622e-09
-2.86017e-09
-3.01177e-09
-3.21704e-09
-3.49424e-09
-3.86572e-09
-4.29721e-09
-4.06922e-09
-5.87507e-09
-6.78774e-09
-7.4781e-10
-3.1261e-10
-7.7226e-10
-8.49547e-10
-8.83195e-10
-9.20123e-10
-9.58666e-10
-9.96823e-10
-1.03407e-09
-1.06963e-09
-1.10407e-09
-1.13815e-09
-1.17052e-09
-1.20006e-09
-1.22657e-09
-1.25156e-09
-1.27591e-09
-1.29839e-09
-1.32202e-09
-1.34473e-09
-1.36594e-09
-1.38953e-09
-1.41134e-09
-1.43404e-09
-1.45607e-09
-1.478e-09
-1.50055e-09
-1.5223e-09
-1.54433e-09
-1.56621e-09
-1.58829e-09
-1.61014e-09
-1.63238e-09
-1.65414e-09
-1.675e-09
-1.69706e-09
-1.71939e-09
-1.74111e-09
-1.76402e-09
-1.78634e-09
-1.80851e-09
-1.83068e-09
-1.85301e-09
-1.87349e-09
-1.89464e-09
-1.91744e-09
-1.94048e-09
-1.96225e-09
-1.98479e-09
-2.00648e-09
-2.0282e-09
-2.05078e-09
-2.07252e-09
-2.09465e-09
-2.11599e-09
-2.13779e-09
-2.15957e-09
-2.1815e-09
-2.20272e-09
-2.22533e-09
-2.24692e-09
-2.26915e-09
-2.29103e-09
-2.314e-09
-2.33819e-09
-2.36297e-09
-2.39142e-09
-2.42185e-09
-2.45638e-09
-2.49508e-09
-2.53993e-09
-2.59459e-09
-2.66299e-09
-2.75087e-09
-2.86593e-09
-3.01934e-09
-3.22652e-09
-3.50629e-09
-3.88537e-09
-4.46039e-09
-5.58836e-09
-6.04036e-09
-6.83321e-09
-7.92963e-10
-1.14657e-09
-8.55831e-10
-8.51926e-10
-8.82943e-10
-9.19668e-10
-9.58182e-10
-9.96396e-10
-1.03356e-09
-1.0692e-09
-1.10366e-09
-1.13783e-09
-1.17044e-09
-1.19992e-09
-1.22621e-09
-1.25138e-09
-1.27586e-09
-1.29832e-09
-1.32131e-09
-1.34459e-09
-1.36594e-09
-1.3893e-09
-1.41095e-09
-1.43389e-09
-1.45582e-09
-1.47807e-09
-1.49991e-09
-1.52184e-09
-1.54416e-09
-1.56608e-09
-1.58792e-09
-1.60971e-09
-1.63184e-09
-1.65353e-09
-1.67448e-09
-1.69684e-09
-1.71934e-09
-1.74096e-09
-1.76387e-09
-1.78625e-09
-1.80841e-09
-1.83057e-09
-1.85274e-09
-1.87323e-09
-1.89435e-09
-1.91718e-09
-1.93981e-09
-1.96161e-09
-1.98438e-09
-2.00646e-09
-2.028e-09
-2.05027e-09
-2.07235e-09
-2.0945e-09
-2.11594e-09
-2.13752e-09
-2.15964e-09
-2.18126e-09
-2.20307e-09
-2.225e-09
-2.24716e-09
-2.26904e-09
-2.29099e-09
-2.31468e-09
-2.33864e-09
-2.36385e-09
-2.39202e-09
-2.42275e-09
-2.45762e-09
-2.49674e-09
-2.54172e-09
-2.59695e-09
-2.66588e-09
-2.75449e-09
-2.8706e-09
-3.02529e-09
-3.23356e-09
-3.51505e-09
-3.89452e-09
-4.37804e-09
-4.70423e-09
-5.99264e-09
-6.86268e-09
-8.00494e-10
-1.22061e-09
-8.62271e-10
-8.52141e-10
-8.82961e-10
-9.19716e-10
-9.58173e-10
-9.96384e-10
-1.03358e-09
-1.06917e-09
-1.10365e-09
-1.13785e-09
-1.17039e-09
-1.19998e-09
-1.22622e-09
-1.25125e-09
-1.27546e-09
-1.29831e-09
-1.3212e-09
-1.34459e-09
-1.36602e-09
-1.38928e-09
-1.41104e-09
-1.43382e-09
-1.45582e-09
-1.47811e-09
-1.49971e-09
-1.52196e-09
-1.5441e-09
-1.56625e-09
-1.58807e-09
-1.60977e-09
-1.63165e-09
-1.65362e-09
-1.67441e-09
-1.69661e-09
-1.71945e-09
-1.7408e-09
-1.76381e-09
-1.78614e-09
-1.80847e-09
-1.83036e-09
-1.85264e-09
-1.87323e-09
-1.89444e-09
-1.91729e-09
-1.93968e-09
-1.96156e-09
-1.98442e-09
-2.00645e-09
-2.02833e-09
-2.05013e-09
-2.07253e-09
-2.09444e-09
-2.11595e-09
-2.13741e-09
-2.15967e-09
-2.18106e-09
-2.20323e-09
-2.22526e-09
-2.2473e-09
-2.26933e-09
-2.29139e-09
-2.31511e-09
-2.33918e-09
-2.3647e-09
-2.39257e-09
-2.42362e-09
-2.45888e-09
-2.49822e-09
-2.54359e-09
-2.59903e-09
-2.6684e-09
-2.75745e-09
-2.87405e-09
-3.02924e-09
-3.23797e-09
-3.51999e-09
-3.90015e-09
-4.38955e-09
-4.78354e-09
-6.00922e-09
-6.87543e-09
-7.34662e-10
-3.27945e-10
-7.65794e-10
-8.50377e-10
-8.83212e-10
-9.20317e-10
-9.58711e-10
-9.96875e-10
-1.03398e-09
-1.06952e-09
-1.10419e-09
-1.13812e-09
-1.17054e-09
-1.20011e-09
-1.22635e-09
-1.25153e-09
-1.27497e-09
-1.29826e-09
-1.32143e-09
-1.34451e-09
-1.3663e-09
-1.38931e-09
-1.41141e-09
-1.43365e-09
-1.45575e-09
-1.47824e-09
-1.50016e-09
-1.52214e-09
-1.5442e-09
-1.56625e-09
-1.58844e-09
-1.60983e-09
-1.63217e-09
-1.65391e-09
-1.67473e-09
-1.69668e-09
-1.71962e-09
-1.7408e-09
-1.76353e-09
-1.78585e-09
-1.80832e-09
-1.83039e-09
-1.85245e-09
-1.87346e-09
-1.89464e-09
-1.91768e-09
-1.94006e-09
-1.96208e-09
-1.98504e-09
-2.00674e-09
-2.02882e-09
-2.05037e-09
-2.07284e-09
-2.09481e-09
-2.11654e-09
-2.13783e-09
-2.15977e-09
-2.18128e-09
-2.20378e-09
-2.22586e-09
-2.24766e-09
-2.26994e-09
-2.29212e-09
-2.31562e-09
-2.3396e-09
-2.36551e-09
-2.39392e-09
-2.42427e-09
-2.46011e-09
-2.49935e-09
-2.54528e-09
-2.60091e-09
-2.67054e-09
-2.75972e-09
-2.87622e-09
-3.03117e-09
-3.23957e-09
-3.52113e-09
-3.90222e-09
-4.47668e-09
-5.63091e-09
-6.04907e-09
-6.86635e-09
-8.53065e-10
-1.80423e-09
-9.09044e-10
-8.55008e-10
-8.83546e-10
-9.21019e-10
-9.59768e-10
-9.98161e-10
-1.03514e-09
-1.07038e-09
-1.10469e-09
-1.13834e-09
-1.17037e-09
-1.19996e-09
-1.22611e-09
-1.25148e-09
-1.27487e-09
-1.29806e-09
-1.32116e-09
-1.34452e-09
-1.36647e-09
-1.38904e-09
-1.41152e-09
-1.43344e-09
-1.456e-09
-1.47797e-09
-1.50008e-09
-1.52201e-09
-1.5442e-09
-1.56588e-09
-1.58795e-09
-1.60974e-09
-1.63227e-09
-1.6541e-09
-1.67569e-09
-1.69728e-09
-1.72049e-09
-1.74116e-09
-1.76356e-09
-1.78601e-09