/*--------------------------------*- C++ -*----------------------------------*\
| =========                 |                                                 |
| \\      /  F ield         | OpenFOAM: The Open Source CFD Toolbox           |
|  \\    /   O peration     | Version:  v1906                                 |
|   \\  /    A nd           | Web:      www.OpenFOAM.com                      |
|    \\/     M anipulation  |                                                 |
\*---------------------------------------------------------------------------*/
FoamFile
{
    version     2.0;
    format      ascii;
    class       volScalarField;
    location    "2e-05";
    object      p;
}
// * * * * * * * * * * * * * * * * * * * * * * * * * * * * * * * * * * * * * //

dimensions      [0 2 -2 0 0 0 0];


internalField   nonuniform List<scalar> 
243374
(
4.17588e-06
-0.000358975
-0.000579521
0.00105475
0.00190247
0.00234687
0.00263394
0.00279999
0.00285966
0.0028853
0.00285214
0.00280588
0.00267348
0.00249591
0.00229508
0.00213487
0.00201687
0.0019449
0.00190622
0.00187106
0.00184823
0.00184265
0.00184413
0.00184807
0.00185003
0.00185055
0.00185
0.00184868
0.00184688
0.0018447
0.00184342
0.00184386
0.00184454
0.00184545
0.00184715
0.00184858
0.00184984
0.00185143
0.00185278
0.00185395
0.00185568
0.00185751
0.00185969
0.00186227
0.00186578
0.00187061
0.00187607
0.00188306
0.00189375
0.00190775
0.00192455
0.00194452
0.00196776
0.00199544
0.00202856
0.00206712
0.00211862
0.00219042
0.00229336
0.00243345
0.00260318
0.00284078
0.00315718
0.00357921
0.00409566
0.004707
0.00536454
0.00611166
0.00698212
0.00801347
0.00925913
0.0107712
0.012551
0.0147267
0.0173077
0.0204656
0.0242659
0.0286643
0.0354685
0.0462444
0.00631428
0.00481981
0.00487849
0.00650417
0.0074175
0.00785446
0.00814974
0.00833181
0.00839996
0.00843712
0.00839693
0.00835687
0.00820487
0.00798809
0.00774671
0.0075584
0.00742994
0.00735817
0.00732618
0.00730072
0.00728622
0.00728818
0.00729635
0.00730532
0.00731161
0.00731599
0.00731803
0.00731889
0.00731924
0.00731874
0.00731902
0.00732055
0.00732164
0.00732284
0.00732503
0.00732695
0.00732841
0.00732997
0.00733109
0.00733235
0.00733413
0.00733574
0.00733788
0.0073403
0.00734334
0.0073476
0.00735224
0.00735819
0.00736785
0.00738068
0.00739609
0.00741428
0.00743549
0.00746039
0.00748942
0.00752295
0.00756888
0.00763404
0.00772955
0.00786151
0.00802415
0.00826355
0.00858949
0.00903757
0.00959239
0.0102502
0.0109305
0.0116903
0.0125719
0.0136101
0.0148584
0.0163788
0.0181578
0.0203514
0.0229468
0.0261312
0.0300021
0.0345124
0.0414528
0.0544704
-0.00244953
-0.00102411
-0.00160299
-7.0863e-05
0.000901586
0.00139655
0.0017038
0.00191554
0.00199494
0.00204929
0.00199923
0.00196522
0.00179527
0.00152905
0.00123656
0.00101026
0.000874384
0.000801509
0.00077687
0.000767783
0.000766643
0.000778423
0.00079464
0.000810023
0.000822335
0.00083222
0.000837981
0.000841858
0.000844975
0.00084636
0.000848225
0.000851411
0.000853548
0.000855115
0.000857904
0.000860122
0.000861634
0.000863317
0.000864057
0.000864887
0.000866248
0.000867208
0.000868907
0.000870651
0.00087279
0.00087679
0.000880323
0.000884665
0.000893388
0.000904354
0.00091703
0.000932603
0.000950453
0.000970632
0.000994101
0.00102115
0.00105956
0.0011164
0.00120081
0.00131775
0.00146902
0.00171135
0.00204454
0.00251996
0.00312053
0.00383565
0.00453993
0.00530291
0.00619892
0.00723855
0.00847216
0.00999607
0.0117498
0.0139452
0.0165555
0.0197147
0.0236367
0.0282199
0.0361006
0.0453981
0.0045395
-0.00344487
0.00266496
0.00162634
0.00270875
0.003581
0.0040034
0.00425117
0.00443839
0.00448917
0.00453961
0.00442631
0.00435727
0.00416013
0.00383463
0.00348755
0.00322128
0.0030863
0.00300608
0.00298304
0.00298958
0.00299872
0.00301747
0.00303931
0.00305754
0.00307308
0.00308679
0.00309525
0.00310159
0.00310698
0.00310993
0.00311374
0.0031183
0.00312007
0.00312147
0.00312543
0.00312886
0.0031303
0.0031319
0.00313256
0.00313406
0.00313626
0.00313676
0.00313821
0.00313981
0.00314209
0.00314652
0.00314858
0.00315056
0.00315792
0.00316853
0.00318067
0.00319455
0.00321063
0.00322789
0.00324688
0.00326944
0.00330317
0.00335374
0.00342893
0.003533
0.003678
0.00393198
0.0042691
0.00476971
0.00542
0.00620161
0.00693982
0.00772727
0.00868853
0.0097744
0.0110165
0.0125894
0.0143812
0.0166554
0.0193797
0.0226441
0.0268274
0.0319002
0.0406426
0.0439284
0.077702
-0.00504062
-0.00659158
0.000476082
-0.000638956
0.00050807
0.00136605
0.00180075
0.00205743
0.00226373
0.00231476
0.00241842
0.00226972
0.00216258
0.00195782
0.00163495
0.00130563
0.00105475
0.000932009
0.000857436
0.000829373
0.000822191
0.000820526
0.000828596
0.000841338
0.00085338
0.000864335
0.000874118
0.000879853
0.00088385
0.000887265
0.000889005
0.000891351
0.000894456
0.000896238
0.00089776
0.000900629
0.000903274
0.000904749
0.000906357
0.000907207
0.000908443
0.000910295
0.000911207
0.000912982
0.000915096
0.000917629
0.000922085
0.000925418
0.000929249
0.000937604
0.00094876
0.000961888
0.000977793
0.000996513
0.00101732
0.00104136
0.00107106
0.00111324
0.00117395
0.00126041
0.0013769
0.00153201
0.00178121
0.00210838
0.00259575
0.00323435
0.00400137
0.00474839
0.00555962
0.00656941
0.00765387
0.00886502
0.0104425
0.0122252
0.0145043
0.0172335
0.0204763
0.0247296
0.0297494
0.0386253
0.0413738
0.0839925
0.13228
-0.0061076
-0.0068835
0.000693904
-0.000454618
0.000682197
0.00147615
0.00190159
0.0021659
0.00237913
0.00240612
0.00254866
0.00239874
0.00222777
0.00199493
0.00169108
0.00139133
0.0011627
0.00104478
0.000971568
0.00093664
0.000915263
0.000901836
0.000898981
0.000902562
0.000908238
0.000914319
0.000919832
0.00092277
0.000924316
0.000925547
0.000926089
0.000927236
0.000929194
0.000930405
0.000931494
0.000933685
0.000935877
0.00093741
0.000939015
0.000940082
0.000941444
0.000943388
0.000944726
0.000946685
0.000949107
0.000952215
0.0009569
0.00096129
0.00096674
0.00097589
0.000988085
0.001003
0.00102101
0.00104228
0.00106693
0.00109621
0.00113292
0.00118356
0.00125432
0.00135198
0.0014814
0.00164807
0.00189571
0.00221932
0.00269187
0.00330765
0.00404625
0.00480708
0.00566743
0.00671335
0.00776786
0.00901355
0.0105582
0.0123814
0.0146623
0.0174063
0.020663
0.0249781
0.0300866
0.0391185
0.0410282
0.084097
0.151411
-0.00606057
-0.00781052
0.000328698
-0.000837177
0.000299882
0.00104799
0.00144931
0.00169783
0.00196955
0.00192476
0.0021323
0.0019586
0.00175164
0.00150507
0.00121462
0.000933771
0.00071871
0.000603109
0.000529392
0.000490106
0.000461487
0.000441997
0.000433615
0.000432777
0.000435228
0.000438659
0.000442081
0.000443602
0.000443853
0.000444062
0.000444042
0.000444297
0.000445339
0.000446658
0.000447717
0.000449223
0.000451231
0.000452578
0.000453961
0.00045534
0.000456627
0.000458477
0.00046021
0.000462338
0.000465059
0.000468492
0.000473224
0.000478268
0.000484744
0.000494318
0.000506846
0.000522464
0.000541606
0.000564486
0.000591191
0.000623169
0.000663696
0.000718799
0.000794766
0.000898236
0.00103434
0.00120664
0.00145386
0.00177653
0.00224058
0.00284167
0.00356234
0.00432849
0.00521445
0.00629816
0.0073239
0.00857784
0.0101315
0.0119674
0.0142501
0.0170178
0.0202952
0.0246591
0.0298116
0.0389216
0.0403054
0.0840922
0.160225
-0.00601334
-0.00781007
0.000329178
-0.000836306
0.000300466
0.00104872
0.00144999
0.00169851
0.00197021
0.00192547
0.00213265
0.00195882
0.00175217
0.00150534
0.00121507
0.000934062
0.000719193
0.000603643
0.000529971
0.000490251
0.000461262
0.00044174
0.000433134
0.000432074
0.000434812
0.000438428
0.00044184
0.000443734
0.000444008
0.000444018
0.000444148
0.000444459
0.000445477
0.000446747
0.00044775
0.000449181
0.000451042
0.000452857
0.000454521
0.000455606
0.000456458
0.000458154
0.000459749
0.000461843
0.000464686
0.000468327
0.00047309
0.00047817
0.000484701
0.000494279
0.000506752
0.000522261
0.00054141
0.000564276
0.000591102
0.000623535
0.000664504
0.000719685
0.00079553
0.000898874
0.00103487
0.00120676
0.00145423
0.00177752
0.00224217
0.00284373
0.00356519
0.00433213
0.00521929
0.00630461
0.00733207
0.00858898
0.0101458
0.0119859
0.0142738
0.0170477
0.0203328
0.0247061
0.0298706
0.0389925
0.040391
0.0840507
0.162539
-0.00546995
-0.00688073
0.000695146
-0.000453672
0.000682044
0.00147676
0.00190218
0.00216615
0.00237925
0.00240671
0.0025488
0.00239888
0.00222888
0.00199522
0.00169193
0.00139224
0.00116453
0.0010468
0.00097299
0.000936025
0.000913765
0.000899938
0.000896636
0.000900336
0.000906768
0.000913046
0.000918796
0.000922649
0.000924131
0.000925165
0.000926377
0.000927119
0.000928394
0.000930365
0.000931546
0.000932904
0.000934997
0.00093691
0.000938746
0.000940113
0.000940958
0.000942632
0.000944185
0.000946009
0.000948676
0.000952237
0.000956617
0.000961358
0.000967616
0.000976524
0.000988134
0.00100275
0.00102078
0.00104231
0.00106743
0.00109772
0.00113563
0.00118663
0.00125739
0.0013547
0.00148394
0.00164902
0.00189727
0.00222253
0.0026968
0.00331401
0.00405492
0.00481748
0.00568094
0.00673252
0.00779152
0.00904543
0.0105997
0.0124355
0.0147314
0.0174931
0.020772
0.025114
0.030257
0.0393239
0.041261
0.084674
0.158794
-0.00464081
-0.00658866
0.000477296
-0.000638181
0.000506953
0.00136635
0.00180097
0.00205737
0.00226343
0.0023152
0.00241822
0.00226966
0.00216361
0.00195764
0.00163586
0.00130659
0.00105709
0.000934606
0.000859286
0.000827561
0.000818803
0.000816443
0.000823569
0.000836247
0.000849718
0.000861169
0.000871305
0.000878837
0.000882701
0.00088561
0.000888667
0.000890379
0.000892406
0.000895372
0.000896863
0.000898432
0.000901077
0.00090346
0.000905601
0.000906991
0.000907723
0.000909549
0.000910954
0.000912372
0.000914849
0.000918292
0.000922228
0.000926268
0.000931577
0.000939334
0.000949503
0.000962166
0.00097803
0.000996949
0.00101867
0.00104469
0.00107655
0.00111939
0.00117996
0.00126554
0.00138153
0.00153358
0.00178396
0.00211404
0.00260415
0.003245
0.00401601
0.00476634
0.00558291
0.00660186
0.00769468
0.00891859
0.0105127
0.012316
0.0146205
0.0173799
0.0206602
0.0249589
0.0300374
0.0389744
0.0417886
0.0839862
0.147604
-0.0021003
-0.00343922
0.00266789
0.00162771
0.00270769
0.00358265
0.00400472
0.00425196
0.00443899
0.00449025
0.00454038
0.00442747
0.0043595
0.00416112
0.00383747
0.00349054
0.00322562
0.00309069
0.00300968
0.00298107
0.00298523
0.0029935
0.00301108
0.00303277
0.00305284
0.00306917
0.00308374
0.00309511
0.00310112
0.00310561
0.00311052
0.00311321
0.00311596
0.00311988
0.0031217
0.00312324
0.00312617
0.00312885
0.00313119
0.00313271
0.00313307
0.0031349
0.00313612
0.00313695
0.00313925
0.0031425
0.00314571
0.00314894
0.0031534
0.0031601
0.00316881
0.00318008
0.0031941
0.00321033
0.0032288
0.00325094
0.00327694
0.0033115
0.00336175
0.00343562
0.00353892
0.00367915
0.00393499
0.00427659
0.00478057
0.00543399
0.00622132
0.00696472
0.00775879
0.00873252
0.00983072
0.0110899
0.0126853
0.0145053
0.0168142
0.0195798
0.0228956
0.0271384
0.0322929
0.0411195
0.0445042
0.0787346
0.126943
-0.000187567
-0.00244362
-0.00102307
-0.00160367
-7.45983e-05
0.000899965
0.0013936
0.00170078
0.0019124
0.00199173
0.00204654
0.00199675
0.00196304
0.00179128
0.00152608
0.001234
0.00100936
0.000874106
0.000800956
0.00077252
0.00076227
0.000760319
0.00077125
0.000787955
0.000804685
0.0008172
0.000827059
0.000834072
0.00083792
0.000840863
0.000843818
0.000845303
0.00084684
0.000850015
0.000851896
0.00085349
0.000856337
0.000858972
0.000861306
0.000862837
0.000864009
0.000866321
0.000867996
0.000869609
0.000871941
0.000875387
0.000879474
0.000883605
0.000889047
0.000896962
0.000907438
0.000920064
0.000935699
0.000954373
0.000975482
0.00100045
0.0010296
0.00106885
0.00112559
0.00121024
0.00132786
0.00147658
0.00172091
0.00205954
0.00253871
0.00314432
0.0038658
0.00457698
0.00534856
0.00625977
0.00731656
0.00857195
0.0101257
0.0119161
0.0141574
0.0168211
0.0200492
0.0240515
0.0287422
0.0367301
0.0461615
0.0727753
0.0063239
0.00482303
0.0048793
0.00650265
0.00741945
0.0078537
0.00814829
0.0083302
0.00839841
0.00843589
0.00839613
0.00835636
0.00820287
0.00798685
0.00774575
0.00755849
0.00743029
0.00735868
0.00732457
0.00729836
0.00728351
0.00728493
0.00729312
0.00730267
0.00730937
0.00731401
0.00731726
0.00731825
0.00731807
0.00731826
0.00731853
0.00731924
0.00732094
0.00732241
0.00732362
0.00732562
0.00732782
0.00732963
0.00733085
0.00733163
0.00733345
0.00733529
0.00733716
0.00733984
0.00734354
0.00734784
0.00735293
0.0073598
0.0073693
0.00738163
0.00739679
0.00741508
0.0074367
0.00746222
0.00749307
0.00752865
0.00757542
0.00764111
0.00773723
0.00786985
0.00803214
0.00827413
0.00860563
0.00905769
0.00961836
0.0102836
0.0109728
0.0117429
0.012643
0.0137011
0.0149753
0.0165309
0.0183535
0.0206012
0.0232592
0.0265277
0.0304946
0.0351309
0.0421993
0.0553719
1.46051e-05
-0.000356081
-0.0005797
0.00105255
0.00190252
0.00234515
0.0026322
0.00279833
0.00285781
0.00288398
0.00285111
0.00280481
0.00267145
0.00249433
0.00229391
0.00213465
0.00201717
0.00194546
0.00190542
0.00186955
0.00184607
0.00184043
0.00184249
0.0018467
0.00184883
0.0018495
0.0018493
0.00184792
0.00184618
0.00184479
0.00184365
0.00184333
0.00184445
0.00184544
0.00184626
0.00184794
0.00184966
0.00185102
0.00185203
0.00185322
0.00185517
0.00185709
0.00185928
0.00186206
0.00186597
0.00187074
0.00187637
0.0018839
0.00189449
0.00190843
0.0019255
0.00194574
0.00196956
0.00199795
0.00203219
0.00207221
0.0021248
0.00219711
0.00230119
0.00244302
0.00261375
0.00285431
0.00317638
0.00360353
0.00412689
0.00474676
0.00541502
0.00617628
0.00706561
0.00812155
0.00939808
0.0109518
0.0127833
0.015024
0.0176812
0.0209374
0.0248564
0.0293996
0.0363617
0.0473148
-0.00343296
-0.000716845
-0.000629556
0.000806841
0.00150636
0.00189867
0.00215003
0.0023197
0.00238846
0.00238639
0.00233995
0.00229232
0.00220137
0.0021157
0.00202104
0.00192401
0.00184086
0.001774
0.00172237
0.00167343
0.00164262
0.00161937
0.00159871
0.00158061
0.00156595
0.00155479
0.00154647
0.00153932
0.00153213
0.00152522
0.00152055
0.00151813
0.00151704
0.00151678
0.00151683
0.0015172
0.00151814
0.00151947
0.00152075
0.00152203
0.00152363
0.00152554
0.00152851
0.00153213
0.00153641
0.00154213
0.00154947
0.00155905
0.00157242
0.00159006
0.00161126
0.00163598
0.0016649
0.00170132
0.00174772
0.00180586
0.00187957
0.00196853
0.00207857
0.00222331
0.00240201
0.00263043
0.00291236
0.00326629
0.00368796
0.00417704
0.0047627
0.00546262
0.00632416
0.00733304
0.00853295
0.00999029
0.0116946
0.0138167
0.0163561
0.0193443
0.0228302
0.0267586
0.0328522
0.0388159
0.00327363
-6.50734e-05
0.0036487
0.00399461
0.00566805
0.00643852
0.00687981
0.00714999
0.00731631
0.00738315
0.0073857
0.00734143
0.00729209
0.0072039
0.00710733
0.00700001
0.00689765
0.00680986
0.00674107
0.00668947
0.00664134
0.00660924
0.00658652
0.00656793
0.00655325
0.00654121
0.00653138
0.00652396
0.00651731
0.0065106
0.00650446
0.00650021
0.00649814
0.00649727
0.00649702
0.00649729
0.00649799
0.00649893
0.00650012
0.00650148
0.00650281
0.00650448
0.00650668
0.00650947
0.00651274
0.00651737
0.00652315
0.0065301
0.00653942
0.00655259
0.00657015
0.00659129
0.00661544
0.00664373
0.00667935
0.00672433
0.00678029
0.00685131
0.00693955
0.00705186
0.00719911
0.00737969
0.0076116
0.00790023
0.0082635
0.008698
0.00920483
0.00980351
0.0105166
0.0113783
0.0123986
0.0136174
0.0150931
0.0168296
0.0189593
0.0214975
0.0245064
0.027984
0.0318419
0.0380544
0.0429028
0.0678031
-0.00195668
-0.00354488
-0.000115758
6.20349e-06
0.00171674
0.00248096
0.00291595
0.003175
0.00332751
0.00338756
0.00339452
0.00335352
0.0033037
0.00321039
0.00309995
0.00297587
0.00286424
0.00277056
0.00270028
0.00265025
0.00260361
0.00257098
0.00255062
0.00253655
0.00252623
0.00251727
0.00250986
0.00250385
0.00249817
0.00249243
0.00248697
0.00248319
0.00248158
0.00248104
0.00248109
0.00248162
0.00248233
0.00248345
0.00248487
0.00248603
0.00248727
0.00248905
0.002491
0.00249369
0.00249701
0.00250108
0.00250654
0.00251352
0.00252252
0.00253515
0.00255179
0.00257197
0.00259556
0.00262308
0.00265704
0.00269936
0.00275108
0.00281769
0.0029034
0.00301586
0.00316374
0.00334324
0.00357681
0.00387182
0.00424588
0.00469456
0.00522057
0.00583143
0.00655275
0.00741312
0.00843527
0.00966428
0.0111517
0.0129146
0.0150711
0.0176315
0.020691
0.0242909
0.0282939
0.034931
0.040189
0.0685811
0.0908619
-0.00645784
-0.00232425
0.000936117
0.00121117
0.00305116
0.0038597
0.0043379
0.00463242
0.0047993
0.0048633
0.00488199
0.00485019
0.00480493
0.00470584
0.00458107
0.00443813
0.00431637
0.00421695
0.0041471
0.0041013
0.0040574
0.0040267
0.00401146
0.00400315
0.00399835
0.00399348
0.00398868
0.00398442
0.00398032
0.00397589
0.00397163
0.00396887
0.00396776
0.00396756
0.00396805
0.00396891
0.00396998
0.00397117
0.00397245
0.0039738
0.00397519
0.00397683
0.00397878
0.00398143
0.00398451
0.00398862
0.00399375
0.00400006
0.00400855
0.00402057
0.00403644
0.00405564
0.00407791
0.00410407
0.00413608
0.00417523
0.00422211
0.00428299
0.00436387
0.00447422
0.00462128
0.00479841
0.0050329
0.00533341
0.00571988
0.00618565
0.00673417
0.00735673
0.0080843
0.00894204
0.00996473
0.0111997
0.0126918
0.0144507
0.0165958
0.0191408
0.0222214
0.0258629
0.0297847
0.036501
0.0418448
0.0705941
0.0789205
0.00169411
0.000868113
0.00407337
0.0041832
0.00609015
0.00696605
0.00746487
0.00778344
0.00796082
0.00802846
0.00805608
0.00802652
0.00798323
0.0078642
0.00771084
0.00753511
0.00739383
0.00728282
0.00721199
0.00717062
0.00712991
0.00710221
0.00709271
0.00709066
0.00709169
0.00709109
0.00708941
0.0070872
0.00708452
0.0070815
0.00707835
0.00707634
0.00707632
0.00707674
0.00707731
0.00707852
0.00707973
0.00708111
0.0070827
0.00708401
0.00708517
0.00708691
0.00708885
0.00709121
0.00709403
0.00709769
0.00710265
0.00710855
0.00711628
0.00712762
0.0071424
0.00716025
0.00718135
0.00720581
0.00723528
0.00727103
0.00731256
0.00736736
0.0074427
0.00754978
0.00769501
0.00786809
0.00810429
0.00841404
0.0088205
0.00931447
0.00989802
0.0105406
0.0112806
0.0121428
0.0131655
0.0144063
0.0159041
0.0176635
0.0198038
0.022335
0.0254324
0.0291042
0.0331479
0.0404682
0.0454331
0.0671957
0.0915192
0.00392761
0.00968937
0.0114112
0.011166
0.0131221
0.0141082
0.0145927
0.0149762
0.0151946
0.0152885
0.0153402
0.0153208
0.0152932
0.0151546
0.0149637
0.0147476
0.0145835
0.0144582
0.01439
0.014358
0.0143223
0.0142999
0.0142985
0.0143039
0.0143112
0.0143154
0.0143176
0.0143178
0.0143173
0.0143164
0.0143151
0.0143145
0.0143152
0.0143161
0.0143173
0.0143191
0.0143207
0.0143223
0.014324
0.0143253
0.0143267
0.0143283
0.0143301
0.0143326
0.0143355
0.0143388
0.0143429
0.014348
0.014355
0.0143652
0.0143786
0.0143948
0.014414
0.0144365
0.0144632
0.0144946
0.0145299
0.0145777
0.0146454
0.0147462
0.0148875
0.0150526
0.015287
0.0156048
0.0160366
0.016565
0.0171923
0.0178488
0.0185939
0.0194526
0.0204612
0.0216873
0.0231747
0.0249048
0.0270042
0.0294824
0.0326162
0.0362896
0.040434
0.0486599
0.0562608
0.0691455
0.0932858
0.00528788
0.00494651
0.0077263
0.00772975
0.00910438
0.0102724
0.0109792
0.0114771
0.0117893
0.0119264
0.012016
0.0120192
0.0120289
0.0118648
0.0116166
0.0113282
0.0111114
0.0109645
0.0108952
0.0108743
0.0108579
0.0108519
0.0108622
0.0108778
0.0108936
0.0109057
0.0109148
0.01092
0.0109234
0.0109261
0.0109273
0.0109286
0.0109317
0.0109341
0.0109356
0.0109384
0.0109405
0.0109422
0.0109442
0.0109453
0.0109462
0.0109477
0.010949
0.0109508
0.0109526
0.0109551
0.010959
0.0109627
0.0109676
0.0109765
0.0109875
0.0110002
0.011016
0.0110338
0.0110545
0.0110788
0.011106
0.0111446
0.0112021
0.0112895
0.0114129
0.0115623
0.0117979
0.0121313
0.0126087
0.0132019
0.0139061
0.0145894
0.0153208
0.0161722
0.017158
0.018351
0.0198141
0.021456
0.0234549
0.0258916
0.028888
0.0324912
0.037318
0.0452147
0.0520118
0.0722548
0.0951926
-0.00147575
0.0156779
0.0121852
0.01172
0.0130626
0.0145727
0.0153762
0.0159796
0.0163972
0.0166115
0.0167504
0.0167106
0.0167219
0.0165567
0.0161874
0.0157693
0.0154562
0.0153325
0.0152482
0.0152332
0.0152636
0.0152895
0.0153229
0.0153568
0.015383
0.0154056
0.015426
0.0154387
0.0154486
0.0154572
0.0154619
0.0154679
0.0154745
0.0154768
0.0154789
0.015484
0.015488
0.0154895
0.015491
0.0154909
0.0154921
0.0154942
0.0154938
0.0154947
0.015496
0.0154973
0.0155014
0.015502
0.0155016
0.0155075
0.0155164
0.0155259
0.0155364
0.0155488
0.0155605
0.015572
0.0155849
0.0156075
0.0156445
0.0157032
0.0157866
0.0159119
0.0161775
0.0165067
0.0170318
0.0177356
0.0185964
0.0193043
0.0200153
0.0209104
0.0219233
0.0230275
0.0244338
0.0259826
0.027885
0.0302654
0.0330805
0.0363119
0.0414497
0.0500261
0.0643554
0.0582553
0.101063
-0.00727353
0.0143919
0.0113414
0.0113473
0.0126659
0.0144248
0.0153309
0.0160232
0.016529
0.0167712
0.0170651
0.0169089
0.0168908
0.01675
0.0164246
0.0160863
0.0158348
0.0157261
0.015657
0.015629
0.0156149
0.0156063
0.015609
0.0156175
0.0156265
0.0156351
0.0156428
0.0156471
0.0156498
0.0156521
0.015653
0.0156548
0.0156573
0.0156588
0.0156603
0.0156628
0.0156652
0.0156666
0.0156681
0.0156689
0.0156702
0.015672
0.015673
0.0156748
0.0156771
0.0156799
0.0156844
0.0156882
0.0156928
0.0157016
0.0157132
0.0157271
0.0157439
0.0157639
0.0157864
0.0158126
0.0158451
0.0158909
0.0159559
0.0160476
0.016171
0.0163274
0.0165724
0.0168839
0.0173676
0.0180141
0.0187898
0.0194892
0.0202024
0.0211956
0.022218
0.0231623
0.0246251
0.026059
0.0278936
0.0302108
0.032798
0.0360555
0.0413
0.0494527
0.0639063
0.0525839
0.107172
-0.0101739
0.016386
0.0119436
0.0120103
0.0132815
0.0151925
0.0161753
0.0170011
0.0174769
0.0178506
0.0181284
0.0181036
0.017921
0.0176791
0.0174023
0.0171238
0.0169147
0.0168068
0.0167381
0.0167024
0.016673
0.0166516
0.0166422
0.0166405
0.0166425
0.0166458
0.0166488
0.0166499
0.0166499
0.0166498
0.0166494
0.0166497
0.0166509
0.0166518
0.0166528
0.0166546
0.0166565
0.016658
0.0166595
0.0166606
0.0166618
0.0166635
0.0166649
0.016667
0.0166698
0.0166732
0.016678
0.016683
0.0166893
0.016699
0.0167117
0.0167275
0.0167466
0.0167694
0.0167962
0.0168281
0.0168684
0.0169235
0.0169998
0.0171039
0.017241
0.0174105
0.0176518
0.0179631
0.0184207
0.0190195
0.0197315
0.0204808
0.0213402
0.0223272
0.0232302
0.0243347
0.0255148
0.0270404
0.02878
0.0310288
0.0332106
0.036764
0.0420996
0.0502625
0.0664283
0.0506944
0.111545
-0.0114832
0.0167262
0.0120364
0.0121571
0.0134191
0.0154205
0.016422
0.0172235
0.0179949
0.0181368
0.0186982
0.0184891
0.0182498
0.0179926
0.0177386
0.0174868
0.0172954
0.0171893
0.0171183
0.0170786
0.0170439
0.0170177
0.0170037
0.0169983
0.0169976
0.0169987
0.017
0.017
0.016999
0.0169981
0.0169974
0.0169971
0.0169977
0.0169986
0.0169994
0.0170008
0.0170026
0.0170041
0.0170054
0.0170066
0.0170079
0.0170097
0.0170113
0.0170134
0.0170165
0.0170202
0.0170251
0.0170305
0.0170375
0.0170476
0.0170606
0.017077
0.0170971
0.0171211
0.0171494
0.0171835
0.017227
0.0172858
0.0173663
0.017475
0.0176171
0.0177918
0.018033
0.0183456
0.0187923
0.0193698
0.0200537
0.0208074
0.0216954
0.0228373
0.0236924
0.0246785
0.0259515
0.0273749
0.0290688
0.0313067
0.0333297
0.0369733
0.0423448
0.0505043
0.0671555
0.0505175
0.114151
-0.0114825
0.016727
0.0120368
0.0121576
0.0134194
0.015421
0.0164223
0.0172235
0.0179957
0.0181368
0.0186984
0.0184892
0.0182504
0.0179927
0.0177388
0.0174869
0.0172959
0.0171897
0.0171188
0.0170787
0.0170438
0.0170176
0.0170034
0.0169979
0.0169974
0.0169986
0.017
0.0170003
0.0169993
0.0169983
0.0169976
0.0169973
0.0169979
0.0169988
0.0169996
0.0170008
0.0170023
0.0170037
0.0170054
0.0170066
0.0170077
0.0170094
0.0170112
0.0170136
0.0170163
0.01702
0.0170249
0.0170304
0.0170375
0.0170475
0.0170605
0.0170768
0.0170969
0.0171209
0.0171493
0.0171838
0.0172275
0.0172865
0.0173671
0.0174756
0.0176178
0.0177922
0.0180337
0.0183468
0.0187943
0.0193723
0.020057
0.0208116
0.0217011
0.0228442
0.0237002
0.0246899
0.0259657
0.0273937
0.029093
0.0313371
0.0333681
0.037022
0.0424052
0.0505761
0.0672389
0.050611
0.114777
-0.010172
0.0163884
0.0119437
0.01201
0.0132806
0.015192
0.016175
0.0170002
0.0174762
0.0178506
0.0181279
0.0181029
0.0179219
0.0176785
0.0174021
0.0171235
0.0169157
0.0168081
0.0167388
0.0167017
0.0166718
0.0166501
0.0166403
0.0166387
0.0166413
0.0166446
0.0166478
0.0166495
0.0166495
0.0166493
0.0166494
0.0166495
0.0166502
0.0166517
0.0166526
0.0166538
0.0166555
0.0166572
0.0166589
0.0166603
0.0166615
0.0166633
0.0166649
0.016667
0.0166698
0.0166735
0.0166781
0.0166833
0.0166901
0.0166996
0.016712
0.0167276
0.0167468
0.0167698
0.0167968
0.0168296
0.0168708
0.0169263
0.0170027
0.0171066
0.0172437
0.0174123
0.0176543
0.0179671
0.0184267
0.0190269
0.0197413
0.0204921
0.0213554
0.0223482
0.0232552
0.0243693
0.0255588
0.027098
0.0288538
0.0311212
0.033327
0.0369112
0.0422836
0.0504808
0.066686
0.0509727
0.113341
-0.00726909
0.0143955
0.011342
0.0113473
0.0126645
0.0144245
0.0153308
0.0160226
0.0165277
0.0167717
0.0170641
0.016908
0.0168918
0.016749
0.0164248
0.0160861
0.0158368
0.0157284
0.0156584
0.0156272
0.0156119
0.0156028
0.0156047
0.0156131
0.0156234
0.0156325
0.0156404
0.0156461
0.0156487
0.0156505
0.0156526
0.0156538
0.0156555
0.0156579
0.0156592
0.0156607
0.015663
0.0156651
0.0156671
0.0156687
0.0156695
0.0156713
0.0156729
0.0156745
0.0156771
0.0156807
0.0156848
0.0156892
0.0156949
0.0157031
0.015714
0.0157275
0.0157444
0.0157646
0.0157878
0.0158156
0.0158501
0.0158965
0.0159617
0.0160528
0.0161758
0.0163295
0.0165758
0.0168901
0.0173772
0.0180255
0.0188056
0.0195077
0.0202271
0.0212299
0.0222602
0.0232184
0.0246992
0.0261544
0.0280153
0.0303637
0.0329906
0.0362978
0.0416051
0.0498153
0.0643343
0.053052
0.110022
-0.00146915
0.015683
0.0121874
0.0117207
0.0130594
0.0145737
0.0153769
0.0159794
0.0163973
0.0166125
0.0167507
0.0167112
0.0167234
0.0165567
0.0161914
0.0157731
0.0154621
0.0153386
0.0152524
0.0152286
0.0152564
0.0152814
0.0153128
0.015346
0.0153753
0.0153991
0.0154201
0.0154367
0.0154462
0.0154535
0.0154612
0.0154656
0.0154698
0.0154751
0.0154771
0.0154792
0.0154828
0.0154858
0.0154889
0.015491
0.0154913
0.0154931
0.0154941
0.0154943
0.0154966
0.0154998
0.0155023
0.0155043
0.0155071
0.015512
0.0155183
0.0155265
0.0155372
0.0155496
0.0155628
0.0155784
0.015596
0.0156197
0.0156564
0.015713
0.0157951
0.0159112
0.0161794
0.016514
0.0170435
0.0177492
0.018618
0.0193317
0.0200509
0.0209566
0.0219837
0.0231063
0.0245369
0.0261162
0.0280562
0.0304808
0.0333516
0.0366507
0.0418777
0.0505389
0.064975
0.0589056
0.104976
0.00314583
0.00495227
0.00772718
0.00772849
0.00909989
0.0102697
0.0109761
0.0114743
0.0117862
0.0119231
0.0120137
0.0120175
0.0120276
0.0118608
0.0116139
0.0113259
0.011111
0.0109646
0.010896
0.010872
0.0108548
0.0108481
0.0108579
0.0108742
0.010891
0.010903
0.0109118
0.0109179
0.0109213
0.0109238
0.0109264
0.0109277
0.010929
0.0109322
0.0109343
0.0109356
0.0109384
0.010941
0.0109428
0.010944
0.0109451
0.0109477
0.0109493
0.0109508
0.0109529
0.010956
0.01096
0.0109643
0.0109699
0.0109778
0.0109886
0.0110017
0.0110177
0.0110366
0.0110578
0.0110829
0.0111118
0.0111511
0.0112087
0.0112968
0.0114215
0.0115692
0.011807
0.0121474
0.0126276
0.0132265
0.0139372
0.0146282
0.01537
0.0162328
0.0172391
0.0184545
0.0199484
0.0216276
0.0236747
0.0261673
0.0292329
0.0329183
0.0378574
0.0458685
0.0527968
0.0562715
0.0979853
0.00585355
0.00969758
0.011414
0.0111656
0.0131192
0.014111
0.0145913
0.0149738
0.0151926
0.015287
0.0153391
0.0153203
0.015293
0.0151527
0.0149622
0.0147464
0.0145835
0.0144586
0.0143909
0.0143576
0.0143216
0.0142989
0.0142968
0.0143023
0.01431
0.0143144
0.0143167
0.0143181
0.0143178
0.0143164
0.0143154
0.0143151
0.0143153
0.0143164
0.0143177
0.0143188
0.0143205
0.0143225
0.014324
0.0143251
0.014326
0.0143278
0.0143295
0.0143314
0.0143342
0.0143379
0.0143424
0.0143481
0.0143556
0.0143657
0.0143787
0.0143946
0.0144139
0.014437
0.0144642
0.0144972
0.0145344
0.0145831
0.0146515
0.0147533
0.0148954
0.015061
0.0152982
0.0156221
0.0160578
0.0165929
0.0172283
0.0178944
0.0186527
0.0195262
0.0205582
0.0218124
0.0233375
0.0251135
0.0272705
0.0298133
0.0330414
0.0368217
0.0411001
0.0494696
0.057233
0.0692144
0.0945261
0.00664103
0.000875584
0.00407601
0.00418311
0.00608795
0.00696558
0.00746303
0.00778131
0.00795893
0.00802654
0.0080546
0.00802539
0.00798186
0.00786205
0.00770894
0.00753339
0.00739306
0.00728262
0.00721212
0.00716996
0.00712881
0.0071005
0.00709087
0.00708933
0.00709053
0.00709002
0.00708839
0.0070865
0.00708393
0.00708092
0.00707838
0.0070765
0.00707578
0.00707655
0.00707727
0.00707787
0.00707937
0.00708097
0.00708222
0.00708323
0.00708447
0.00708643
0.00708841
0.00709072
0.00709369
0.00709774
0.00710291
0.0071091
0.00711712
0.00712838
0.00714324
0.00716131
0.00718265
0.00720782
0.007238
0.00727466
0.00731753
0.00737351
0.00744944
0.00755777
0.00770505
0.00788004
0.00811944
0.00843482
0.00884628
0.00934768
0.00994051
0.0105945
0.0113497
0.0122316
0.0132805
0.0145544
0.0160967
0.0179111
0.020121
0.0227346
0.0259358
0.0297365
0.0339334
0.0414273
0.0465899
0.0761721
0.094782
0.00289994
-0.0023168
0.000939245
0.00121131
0.00304927
0.00385845
0.00433629
0.0046306
0.00479749
0.00486164
0.00488057
0.00484904
0.00480358
0.00470382
0.00457922
0.00443667
0.00431556
0.0042165
0.00414668
0.00410045
0.00405657
0.00402568
0.00401028
0.00400216
0.0039973
0.00399258
0.003988
0.00398413
0.00398024
0.0039756
0.00397147
0.00396886
0.00396759
0.00396761
0.00396797
0.00396848
0.00396966
0.003971
0.00397219
0.00397325
0.00397446
0.00397636
0.00397852
0.00398101
0.00398419
0.00398846
0.00399389
0.00400064
0.0040095
0.00402162
0.0040374
0.00405668
0.00407935
0.00410612
0.00413874
0.00417895
0.00422713
0.00428943
0.00437152
0.00448335
0.00463245
0.00481185
0.00505009
0.00535653
0.00574914
0.00622302
0.0067816
0.00741708
0.00816251
0.00904255
0.0100947
0.0113674
0.0129097
0.0147312
0.0169564
0.0195982
0.022796
0.0265841
0.0306841
0.037598
0.0431751
0.0689497
0.0910163
-0.00671334
-0.00353713
-0.000112745
6.02958e-06
0.00171457
0.00247874
0.0029137
0.00317296
0.00332551
0.00338548
0.00339252
0.00335201
0.00330186
0.00320827
0.00309795
0.00297403
0.00286298
0.00276972
0.00269962
0.00264945
0.00260267
0.00256979
0.00254954
0.00253554
0.00252516
0.00251641
0.00250887
0.00250315
0.00249782
0.00249195
0.00248683
0.0024833
0.0024813
0.00248091
0.00248091
0.00248106
0.00248202
0.00248316
0.00248416