/*--------------------------------*- C++ -*----------------------------------*\
| =========                 |                                                 |
| \\      /  F ield         | OpenFOAM: The Open Source CFD Toolbox           |
|  \\    /   O peration     | Version:  v1906                                 |
|   \\  /    A nd           | Web:      www.OpenFOAM.com                      |
|    \\/     M anipulation  |                                                 |
\*---------------------------------------------------------------------------*/
FoamFile
{
    version     2.0;
    format      ascii;
    class       volScalarField;
    location    "51.5";
    object      p;
}
// * * * * * * * * * * * * * * * * * * * * * * * * * * * * * * * * * * * * * //

dimensions      [0 2 -2 0 0 0 0];


internalField   nonuniform List<scalar> 
243374
(
-1.11396e-16
-3.91261e-11
-5.88529e-11
-8.18266e-11
-1.04473e-10
-1.26804e-10
-1.48988e-10
-1.71058e-10
-1.93087e-10
-2.15071e-10
-2.37033e-10
-2.58999e-10
-2.80958e-10
-3.02907e-10
-3.24862e-10
-3.46809e-10
-3.68771e-10
-3.90731e-10
-4.12682e-10
-4.34649e-10
-4.56619e-10
-4.78564e-10
-5.00521e-10
-5.22495e-10
-5.44448e-10
-5.66411e-10
-5.88375e-10
-6.1033e-10
-6.32293e-10
-6.54259e-10
-6.76221e-10
-6.98179e-10
-7.20141e-10
-7.42105e-10
-7.6407e-10
-7.86031e-10
-8.07984e-10
-8.29953e-10
-8.51919e-10
-8.73873e-10
-8.95833e-10
-9.17804e-10
-9.39757e-10
-9.61722e-10
-9.83682e-10
-1.00565e-09
-1.02761e-09
-1.04957e-09
-1.07154e-09
-1.0935e-09
-1.11547e-09
-1.13743e-09
-1.1594e-09
-1.18137e-09
-1.20336e-09
-1.22535e-09
-1.24735e-09
-1.26936e-09
-1.2914e-09
-1.31349e-09
-1.33562e-09
-1.35783e-09
-1.38015e-09
-1.40261e-09
-1.4253e-09
-1.4483e-09
-1.47175e-09
-1.49584e-09
-1.52083e-09
-1.54707e-09
-1.57516e-09
-1.60569e-09
-1.6398e-09
-1.67879e-09
-1.72434e-09
-1.77911e-09
-1.8462e-09
-1.92925e-09
-2.02651e-09
-2.18021e-09
-1.2622e-11
-3.99364e-11
-5.92231e-11
-8.19955e-11
-1.04565e-10
-1.26868e-10
-1.49032e-10
-1.71095e-10
-1.93098e-10
-2.15085e-10
-2.37053e-10
-2.59008e-10
-2.80957e-10
-3.0291e-10
-3.24865e-10
-3.46825e-10
-3.68783e-10
-3.90733e-10
-4.12702e-10
-4.34652e-10
-4.56609e-10
-4.78589e-10
-5.00543e-10
-5.22487e-10
-5.44459e-10
-5.6642e-10
-5.88379e-10
-6.10343e-10
-6.32302e-10
-6.54262e-10
-6.76226e-10
-6.9819e-10
-7.20149e-10
-7.4211e-10
-7.64077e-10
-7.86034e-10
-8.08001e-10
-8.29958e-10
-8.5192e-10
-8.73885e-10
-8.95844e-10
-9.17805e-10
-9.39767e-10
-9.61733e-10
-9.83684e-10
-1.00565e-09
-1.02762e-09
-1.04957e-09
-1.07154e-09
-1.09351e-09
-1.11547e-09
-1.13744e-09
-1.1594e-09
-1.18138e-09
-1.20336e-09
-1.22536e-09
-1.24735e-09
-1.26937e-09
-1.29142e-09
-1.31349e-09
-1.33562e-09
-1.35783e-09
-1.38015e-09
-1.40264e-09
-1.42532e-09
-1.44834e-09
-1.47182e-09
-1.49594e-09
-1.52099e-09
-1.5473e-09
-1.57548e-09
-1.60623e-09
-1.64053e-09
-1.67982e-09
-1.72602e-09
-1.78123e-09
-1.84888e-09
-1.93283e-09
-2.03235e-09
-2.17211e-09
-2.95342e-11
-4.01135e-11
-5.94682e-11
-8.20885e-11
-1.04606e-10
-1.26884e-10
-1.49026e-10
-1.71092e-10
-1.93109e-10
-2.15085e-10
-2.3704e-10
-2.59002e-10
-2.80958e-10
-3.02911e-10
-3.2486e-10
-3.46813e-10
-3.68764e-10
-3.90733e-10
-4.12681e-10
-4.34647e-10
-4.56616e-10
-4.7855e-10
-5.00519e-10
-5.22504e-10
-5.44449e-10
-5.6641e-10
-5.88376e-10
-6.10328e-10
-6.32293e-10
-6.54252e-10
-6.76213e-10
-6.98176e-10
-7.20146e-10
-7.4211e-10
-7.64061e-10
-7.86028e-10
-8.07983e-10
-8.29952e-10
-8.5192e-10
-8.73871e-10
-8.95839e-10
-9.17803e-10
-9.39759e-10
-9.61714e-10
-9.83688e-10
-1.00564e-09
-1.0276e-09
-1.04958e-09
-1.07153e-09
-1.09349e-09
-1.11546e-09
-1.13743e-09
-1.15941e-09
-1.18137e-09
-1.20335e-09
-1.22533e-09
-1.24734e-09
-1.26935e-09
-1.29139e-09
-1.31348e-09
-1.33562e-09
-1.35783e-09
-1.38015e-09
-1.40261e-09
-1.42533e-09
-1.44836e-09
-1.47184e-09
-1.496e-09
-1.52106e-09
-1.54744e-09
-1.5757e-09
-1.60656e-09
-1.64101e-09
-1.68053e-09
-1.72697e-09
-1.78264e-09
-1.8508e-09
-1.93517e-09
-2.03598e-09
-2.15873e-09
1.26642e-10
-2.27083e-11
-3.7706e-11
-5.9488e-11
-8.21429e-11
-1.04644e-10
-1.26904e-10
-1.49078e-10
-1.71107e-10
-1.93107e-10
-2.1509e-10
-2.37064e-10
-2.59007e-10
-2.80963e-10
-3.02905e-10
-3.24866e-10
-3.46816e-10
-3.68787e-10
-3.90726e-10
-4.12703e-10
-4.34662e-10
-4.56609e-10
-4.78591e-10
-5.00537e-10
-5.22475e-10
-5.44454e-10
-5.66415e-10
-5.88378e-10
-6.10345e-10
-6.32298e-10
-6.54266e-10
-6.76232e-10
-6.98189e-10
-7.20138e-10
-7.421e-10
-7.64083e-10
-7.86026e-10
-8.08e-10
-8.29953e-10
-8.51908e-10
-8.73872e-10
-8.95839e-10
-9.17799e-10
-9.3976e-10
-9.61739e-10
-9.83676e-10
-1.00565e-09
-1.02762e-09
-1.04956e-09
-1.07155e-09
-1.09351e-09
-1.11546e-09
-1.13742e-09
-1.15939e-09
-1.18138e-09
-1.20335e-09
-1.22536e-09
-1.24734e-09
-1.26937e-09
-1.29141e-09
-1.31347e-09
-1.33561e-09
-1.35782e-09
-1.38014e-09
-1.40263e-09
-1.42534e-09
-1.44836e-09
-1.47188e-09
-1.49603e-09
-1.52114e-09
-1.54758e-09
-1.57588e-09
-1.60682e-09
-1.64148e-09
-1.68111e-09
-1.72776e-09
-1.78377e-09
-1.85237e-09
-1.93731e-09
-2.0418e-09
-2.16499e-09
-2.29807e-09
1.16365e-10
-2.80143e-11
-3.84078e-11
-5.95352e-11
-8.21815e-11
-1.04669e-10
-1.26922e-10
-1.49044e-10
-1.71118e-10
-1.93118e-10
-2.15093e-10
-2.37053e-10
-2.58997e-10
-2.80953e-10
-3.02921e-10
-3.2486e-10
-3.46827e-10
-3.68761e-10
-3.90739e-10
-4.12681e-10
-4.34636e-10
-4.56601e-10
-4.78545e-10
-5.00528e-10
-5.22511e-10
-5.44454e-10
-5.66418e-10
-5.88373e-10
-6.10326e-10
-6.32297e-10
-6.54252e-10
-6.76214e-10
-6.9817e-10
-7.20144e-10
-7.42117e-10
-7.64059e-10
-7.86034e-10
-8.07987e-10
-8.29943e-10
-8.51909e-10
-8.73874e-10
-8.95832e-10
-9.17794e-10
-9.39754e-10
-9.61714e-10
-9.8369e-10
-1.00564e-09
-1.02759e-09
-1.04959e-09
-1.07152e-09
-1.09348e-09
-1.11546e-09
-1.13744e-09
-1.15941e-09
-1.18137e-09
-1.20334e-09
-1.22532e-09
-1.24733e-09
-1.26933e-09
-1.29138e-09
-1.31349e-09
-1.3356e-09
-1.35782e-09
-1.38014e-09
-1.4026e-09
-1.42531e-09
-1.44837e-09
-1.47185e-09
-1.49604e-09
-1.52116e-09
-1.54762e-09
-1.57596e-09
-1.60698e-09
-1.64165e-09
-1.68148e-09
-1.72829e-09
-1.78451e-09
-1.85339e-09
-1.9387e-09
-2.04313e-09
-2.1638e-09
-2.3181e-09
-2.56418e-09
1.10902e-10
-2.19546e-11
-3.70789e-11
-5.94598e-11
-8.22036e-11
-1.04664e-10
-1.26932e-10
-1.49092e-10
-1.71114e-10
-1.93117e-10
-2.15091e-10
-2.37056e-10
-2.59015e-10
-2.80961e-10
-3.02899e-10
-3.24874e-10
-3.46803e-10
-3.68785e-10
-3.90721e-10
-4.12693e-10
-4.34664e-10
-4.56618e-10
-4.78592e-10
-5.00532e-10
-5.2247e-10
-5.44453e-10
-5.66409e-10
-5.88374e-10
-6.1034e-10
-6.32293e-10
-6.54259e-10
-6.76228e-10
-6.98199e-10
-7.20145e-10
-7.4209e-10
-7.64069e-10
-7.8602e-10
-8.07985e-10
-8.29947e-10
-8.51909e-10
-8.73864e-10
-8.95836e-10
-9.17794e-10
-9.39761e-10
-9.61719e-10
-9.8368e-10
-1.00564e-09
-1.02762e-09
-1.04955e-09
-1.07153e-09
-1.09351e-09
-1.11547e-09
-1.13741e-09
-1.15938e-09
-1.18136e-09
-1.20335e-09
-1.22535e-09
-1.24733e-09
-1.26935e-09
-1.29139e-09
-1.31345e-09
-1.33559e-09
-1.35779e-09
-1.38011e-09
-1.4026e-09
-1.42531e-09
-1.44834e-09
-1.47185e-09
-1.49602e-09
-1.52115e-09
-1.54761e-09
-1.57597e-09
-1.607e-09
-1.64176e-09
-1.68161e-09
-1.72849e-09
-1.78484e-09
-1.85387e-09
-1.93945e-09
-2.04549e-09
-2.17163e-09
-2.32729e-09
-2.56499e-09
1.06419e-10
-2.49436e-11
-3.7564e-11
-5.95105e-11
-8.22054e-11
-1.04699e-10
-1.26931e-10
-1.49068e-10
-1.71123e-10
-1.93112e-10
-2.15105e-10
-2.37055e-10
-2.5899e-10
-2.80966e-10
-3.02923e-10
-3.24856e-10
-3.46824e-10
-3.68769e-10
-3.90747e-10
-4.12694e-10
-4.34636e-10
-4.56595e-10
-4.78551e-10
-5.0053e-10
-5.22503e-10
-5.44457e-10
-5.66418e-10
-5.88372e-10
-6.10336e-10
-6.32302e-10
-6.54258e-10
-6.76213e-10
-6.98164e-10
-7.20136e-10
-7.42122e-10
-7.64072e-10
-7.86023e-10
-8.07983e-10
-8.29941e-10
-8.51896e-10
-8.73865e-10
-8.95812e-10
-9.17792e-10
-9.39738e-10
-9.61718e-10
-9.83677e-10
-1.00564e-09
-1.02759e-09
-1.04959e-09
-1.07154e-09
-1.09348e-09
-1.11545e-09
-1.13743e-09
-1.15941e-09
-1.18137e-09
-1.20333e-09
-1.22532e-09
-1.24733e-09
-1.26932e-09
-1.29136e-09
-1.31346e-09
-1.33557e-09
-1.35778e-09
-1.3801e-09
-1.40257e-09
-1.42526e-09
-1.44831e-09
-1.4718e-09
-1.49597e-09
-1.52109e-09
-1.54755e-09
-1.5759e-09
-1.60692e-09
-1.64165e-09
-1.68151e-09
-1.7284e-09
-1.78476e-09
-1.8538e-09
-1.93941e-09
-2.04513e-09
-2.16894e-09
-2.32987e-09
-2.56593e-09
1.04867e-10
-2.48956e-11
-3.75472e-11
-5.94933e-11
-8.22046e-11
-1.04666e-10
-1.26942e-10
-1.49073e-10
-1.71122e-10
-1.93129e-10
-2.15083e-10
-2.37056e-10
-2.59016e-10
-2.80946e-10
-3.02905e-10
-3.24871e-10
-3.46804e-10
-3.68772e-10
-3.90719e-10
-4.12679e-10
-4.34661e-10
-4.5662e-10
-4.7858e-10
-5.00528e-10
-5.2248e-10
-5.44441e-10
-5.66409e-10
-5.88377e-10
-6.10328e-10
-6.32287e-10
-6.54257e-10
-6.76223e-10
-6.98193e-10
-7.20151e-10
-7.42082e-10
-7.64067e-10
-7.86021e-10
-8.07986e-10
-8.29951e-10
-8.51915e-10
-8.73866e-10
-8.95836e-10
-9.1779e-10
-9.39758e-10
-9.61718e-10
-9.83674e-10
-1.00565e-09
-1.02761e-09
-1.04955e-09
-1.07152e-09
-1.0935e-09
-1.11546e-09
-1.13741e-09
-1.15937e-09
-1.18136e-09
-1.20334e-09
-1.22533e-09
-1.24731e-09
-1.26933e-09
-1.29137e-09
-1.31343e-09
-1.33556e-09
-1.35776e-09
-1.38008e-09
-1.40254e-09
-1.42524e-09
-1.44825e-09
-1.47174e-09
-1.49589e-09
-1.52099e-09
-1.54741e-09
-1.57574e-09
-1.60671e-09
-1.64139e-09
-1.68118e-09
-1.72797e-09
-1.78423e-09
-1.85316e-09
-1.93863e-09
-2.04411e-09
-2.16777e-09
-2.32945e-09
-2.56534e-09
1.05591e-10
-2.21725e-11
-3.71239e-11
-5.94758e-11
-8.21994e-11
-1.04692e-10
-1.2692e-10
-1.49075e-10
-1.71116e-10
-1.93101e-10
-2.15104e-10
-2.37054e-10
-2.58994e-10
-2.80972e-10
-3.02911e-10
-3.24865e-10
-3.46814e-10
-3.68779e-10
-3.9075e-10
-4.12701e-10
-4.34639e-10
-4.56599e-10
-4.78562e-10
-5.0053e-10
-5.22489e-10
-5.44458e-10
-5.66421e-10
-5.88369e-10
-6.10344e-10
-6.32307e-10
-6.54259e-10
-6.76216e-10
-6.98174e-10
-7.2013e-10
-7.42127e-10
-7.64064e-10
-7.86023e-10
-8.07985e-10
-8.29946e-10
-8.51892e-10
-8.73869e-10
-8.95831e-10
-9.17791e-10
-9.39751e-10
-9.61717e-10
-9.83684e-10
-1.00564e-09
-1.0276e-09
-1.04958e-09
-1.07154e-09
-1.09349e-09
-1.11545e-09
-1.13743e-09
-1.1594e-09
-1.18136e-09
-1.20333e-09
-1.22532e-09
-1.24732e-09
-1.26932e-09
-1.29135e-09
-1.31343e-09
-1.33554e-09
-1.35774e-09
-1.38004e-09
-1.4025e-09
-1.42518e-09
-1.44819e-09
-1.47166e-09
-1.49578e-09
-1.52085e-09
-1.54722e-09
-1.57548e-09
-1.60638e-09
-1.64095e-09
-1.6806e-09
-1.72723e-09
-1.78327e-09
-1.85194e-09
-1.93711e-09
-2.0428e-09
-2.16879e-09
-2.32656e-09
-2.56303e-09
1.09005e-10
-2.78646e-11
-3.83858e-11
-5.95385e-11
-8.21801e-11
-1.0464e-10
-1.26933e-10
-1.4904e-10
-1.71114e-10
-1.9312e-10
-2.15076e-10
-2.37056e-10
-2.59014e-10
-2.80937e-10
-3.02911e-10
-3.2486e-10
-3.46812e-10
-3.68761e-10
-3.90716e-10
-4.12676e-10
-4.34654e-10
-4.56609e-10
-4.78572e-10
-5.00527e-10
-5.22489e-10
-5.44447e-10
-5.66401e-10
-5.88375e-10
-6.10325e-10
-6.32284e-10
-6.54254e-10
-6.76217e-10
-6.9818e-10
-7.20153e-10
-7.42084e-10
-7.64059e-10
-7.86039e-10
-8.07986e-10
-8.29952e-10
-8.51912e-10
-8.73867e-10
-8.95834e-10
-9.17792e-10
-9.39756e-10
-9.61716e-10
-9.83682e-10
-1.00565e-09
-1.0276e-09
-1.04956e-09
-1.07151e-09
-1.09349e-09
-1.11545e-09
-1.1374e-09
-1.15938e-09
-1.18135e-09
-1.20333e-09
-1.22531e-09
-1.24729e-09
-1.26931e-09
-1.29133e-09
-1.31339e-09
-1.33552e-09
-1.35771e-09
-1.38001e-09
-1.40246e-09
-1.42513e-09
-1.44811e-09
-1.47155e-09
-1.49564e-09
-1.52066e-09
-1.54697e-09
-1.57515e-09
-1.60593e-09
-1.64035e-09
-1.67982e-09
-1.72617e-09
-1.7819e-09
-1.85019e-09
-1.93483e-09
-2.03878e-09
-2.15838e-09
-2.31887e-09
-2.55992e-09
1.20419e-10
-2.27746e-11
-3.77071e-11
-5.9466e-11
-8.2142e-11
-1.04645e-10
-1.269e-10
-1.49048e-10
-1.71107e-10
-1.931e-10
-2.15098e-10
-2.37048e-10
-2.58995e-10
-2.8097e-10
-3.02909e-10
-3.24869e-10
-3.46813e-10
-3.68785e-10
-3.90751e-10
-4.12703e-10
-4.34644e-10
-4.56609e-10
-4.78567e-10
-5.00528e-10
-5.22491e-10
-5.44451e-10
-5.66425e-10
-5.88374e-10
-6.10344e-10
-6.32308e-10
-6.54264e-10
-6.7622e-10
-6.98188e-10
-7.20131e-10
-7.42121e-10
-7.64079e-10
-7.86016e-10
-8.07995e-10
-8.29961e-10
-8.51909e-10
-8.73879e-10
-8.95835e-10
-9.17809e-10
-9.39757e-10
-9.6173e-10
-9.8368e-10
-1.00564e-09
-1.02761e-09
-1.04957e-09
-1.07154e-09
-1.09349e-09
-1.11546e-09
-1.13744e-09
-1.15938e-09
-1.18135e-09
-1.20332e-09
-1.22531e-09
-1.2473e-09
-1.2693e-09
-1.29134e-09
-1.3134e-09
-1.33551e-09
-1.35769e-09
-1.37997e-09
-1.40241e-09
-1.42506e-09
-1.44802e-09
-1.47144e-09
-1.49547e-09
-1.52049e-09
-1.54666e-09
-1.57473e-09
-1.60538e-09
-1.6396e-09
-1.67882e-09
-1.72484e-09
-1.78014e-09
-1.84792e-09
-1.93191e-09
-2.03542e-09
-2.15784e-09
-2.30172e-09
-2.56007e-09
1.46404e-10
-2.94885e-11
-4.00763e-11
-5.94664e-11
-8.20762e-11
-1.04585e-10
-1.26878e-10
-1.49018e-10
-1.71087e-10
-1.93099e-10
-2.15069e-10
-2.37048e-10
-2.59002e-10
-2.80936e-10
-3.02906e-10
-3.24858e-10
-3.46809e-10
-3.68763e-10
-3.90716e-10
-4.12677e-10
-4.34647e-10
-4.56604e-10
-4.78562e-10
-5.0053e-10
-5.22486e-10
-5.44451e-10
-5.66402e-10
-5.88371e-10
-6.1033e-10
-6.32285e-10
-6.54247e-10
-6.76214e-10
-6.98176e-10
-7.2015e-10
-7.42092e-10
-7.64055e-10
-7.86034e-10
-8.0799e-10
-8.29943e-10
-8.51919e-10
-8.73874e-10
-8.95832e-10
-9.17796e-10
-9.39756e-10
-9.61713e-10
-9.83681e-10
-1.00564e-09
-1.0276e-09
-1.04956e-09
-1.07151e-09
-1.09349e-09
-1.11544e-09
-1.1374e-09
-1.15938e-09
-1.18134e-09
-1.20332e-09
-1.22529e-09
-1.24728e-09
-1.26929e-09
-1.2913e-09
-1.31336e-09
-1.33547e-09
-1.35765e-09
-1.37993e-09
-1.40235e-09
-1.42498e-09
-1.44791e-09
-1.47128e-09
-1.49528e-09
-1.52008e-09
-1.54631e-09
-1.57424e-09
-1.60471e-09
-1.6387e-09
-1.67759e-09
-1.72319e-09
-1.778e-09
-1.8451e-09
-1.92828e-09
-2.0279e-09
-2.14924e-09
-2.27564e-09
-1.24943e-11
-3.99094e-11
-5.92081e-11
-8.19796e-11
-1.04556e-10
-1.26857e-10
-1.49011e-10
-1.71082e-10
-1.93094e-10
-2.1508e-10
-2.3704e-10
-2.58995e-10
-2.80963e-10
-3.02905e-10
-3.24864e-10
-3.46822e-10
-3.68778e-10
-3.90741e-10
-4.12698e-10
-4.34652e-10
-4.5661e-10
-4.78573e-10
-5.00527e-10
-5.22494e-10
-5.44451e-10
-5.66423e-10
-5.88377e-10
-6.10337e-10
-6.32304e-10
-6.54268e-10
-6.76222e-10
-6.98184e-10
-7.20138e-10
-7.42115e-10
-7.64076e-10
-7.86025e-10
-8.07992e-10
-8.29964e-10
-8.51917e-10
-8.73881e-10
-8.95846e-10
-9.17804e-10
-9.39763e-10
-9.61729e-10
-9.83681e-10
-1.00564e-09
-1.02761e-09
-1.04957e-09
-1.07153e-09
-1.09349e-09
-1.11546e-09
-1.13743e-09
-1.15938e-09
-1.18134e-09
-1.20331e-09
-1.2253e-09
-1.24729e-09
-1.26928e-09
-1.29131e-09
-1.31336e-09
-1.33546e-09
-1.35763e-09
-1.37989e-09
-1.4023e-09
-1.4249e-09
-1.44781e-09
-1.47115e-09
-1.49508e-09
-1.51992e-09
-1.54593e-09
-1.57372e-09
-1.604e-09
-1.63773e-09
-1.67627e-09
-1.72141e-09
-1.77566e-09
-1.84202e-09
-1.92457e-09
-2.02258e-09
-2.1606e-09
2.00841e-13
-3.90931e-11
-5.88433e-11
-8.18085e-11
-1.04451e-10
-1.26791e-10
-1.48971e-10
-1.71052e-10
-1.93073e-10
-2.15058e-10
-2.37036e-10
-2.58994e-10
-2.80932e-10
-3.02901e-10
-3.2486e-10
-3.46806e-10
-3.6877e-10
-3.90722e-10
-4.12684e-10
-4.34642e-10
-4.56607e-10
-4.78559e-10
-5.00533e-10
-5.22488e-10
-5.4445e-10
-5.66407e-10
-5.8837e-10
-6.10338e-10
-6.32289e-10
-6.54244e-10
-6.76222e-10
-6.98175e-10
-7.20144e-10
-7.42098e-10
-7.64059e-10
-7.86027e-10
-8.07993e-10
-8.29946e-10
-8.51917e-10
-8.73874e-10
-8.95832e-10
-9.17798e-10
-9.39754e-10
-9.61711e-10
-9.83677e-10
-1.00564e-09
-1.0276e-09
-1.04956e-09
-1.07152e-09
-1.09349e-09
-1.11544e-09
-1.1374e-09
-1.15937e-09
-1.18133e-09
-1.20331e-09
-1.22528e-09
-1.24726e-09
-1.26926e-09
-1.29128e-09
-1.31333e-09
-1.33542e-09
-1.35757e-09
-1.37982e-09
-1.40222e-09
-1.42479e-09
-1.44767e-09
-1.47095e-09
-1.49483e-09
-1.51952e-09
-1.54544e-09
-1.57306e-09
-1.60307e-09
-1.63648e-09
-1.67455e-09
-1.71915e-09
-1.77222e-09
-1.8379e-09
-1.9193e-09
-2.01488e-09
-2.1669e-09
-1.57314e-11
-3.13624e-11
-5.67585e-11
-8.09685e-11
-1.04041e-10
-1.26573e-10
-1.48841e-10
-1.70962e-10
-1.93021e-10
-2.1503e-10
-2.37011e-10
-2.58981e-10
-2.80938e-10
-3.02904e-10
-3.24854e-10
-3.4681e-10
-3.68771e-10
-3.90729e-10
-4.12685e-10
-4.34644e-10
-4.56611e-10
-4.78569e-10
-5.00521e-10
-5.22491e-10
-5.44448e-10
-5.66417e-10
-5.88376e-10
-6.10333e-10
-6.32289e-10
-6.54261e-10
-6.7622e-10
-6.98181e-10
-7.20135e-10
-7.42108e-10
-7.64071e-10
-7.86029e-10
-8.07987e-10
-8.29948e-10
-8.51914e-10
-8.73878e-10
-8.95835e-10
-9.17797e-10
-9.39761e-10
-9.61719e-10
-9.83689e-10
-1.00564e-09
-1.02761e-09
-1.04958e-09
-1.07154e-09
-1.0935e-09
-1.11547e-09
-1.13744e-09
-1.15941e-09
-1.18138e-09
-1.20337e-09
-1.22536e-09
-1.24736e-09
-1.26936e-09
-1.29141e-09
-1.31348e-09
-1.33561e-09
-1.35779e-09
-1.38007e-09
-1.4025e-09
-1.42512e-09
-1.448e-09
-1.47129e-09
-1.49513e-09
-1.51974e-09
-1.5455e-09
-1.57284e-09
-1.60235e-09
-1.63494e-09
-1.6719e-09
-1.71474e-09
-1.76604e-09
-1.82879e-09
-1.90808e-09
-2.00776e-09
-2.12573e-09
1.45212e-10
-2.28641e-11
-3.31142e-11
-5.73873e-11
-8.12373e-11
-1.04189e-10
-1.2666e-10
-1.489e-10
-1.71003e-10
-1.93045e-10
-2.15051e-10
-2.37021e-10
-2.58985e-10
-2.80954e-10
-3.029e-10
-3.24864e-10
-3.46827e-10
-3.68774e-10
-3.90731e-10
-4.12696e-10
-4.34654e-10
-4.56606e-10
-4.78571e-10
-5.00541e-10
-5.22497e-10
-5.44459e-10
-5.66416e-10
-5.88377e-10
-6.10343e-10
-6.32313e-10
-6.5426e-10
-6.76224e-10
-6.98189e-10
-7.20154e-10
-7.42109e-10
-7.64062e-10
-7.8603e-10
-8.08004e-10
-8.29957e-10
-8.51915e-10
-8.73885e-10
-8.95845e-10
-9.17802e-10
-9.39762e-10
-9.61724e-10
-9.83695e-10
-1.00566e-09
-1.02761e-09
-1.04958e-09
-1.07154e-09
-1.09352e-09
-1.11547e-09
-1.13744e-09
-1.15941e-09
-1.18139e-09
-1.20337e-09
-1.22536e-09
-1.24736e-09
-1.26938e-09
-1.29143e-09
-1.3135e-09
-1.33562e-09
-1.35781e-09
-1.3801e-09
-1.40255e-09
-1.42518e-09
-1.44812e-09
-1.47143e-09
-1.49536e-09
-1.52014e-09
-1.54603e-09
-1.57349e-09
-1.60329e-09
-1.63629e-09
-1.67382e-09
-1.71767e-09
-1.76983e-09
-1.83358e-09
-1.91367e-09
-2.01434e-09
-2.12675e-09
-2.22964e-09
1.31166e-10
-1.21428e-11
-3.38087e-11
-5.78142e-11
-8.14191e-11
-1.04269e-10
-1.26703e-10
-1.48908e-10
-1.71013e-10
-1.93053e-10
-2.15045e-10
-2.37033e-10
-2.58988e-10
-2.80937e-10
-3.02914e-10
-3.24857e-10
-3.46804e-10
-3.68773e-10
-3.90732e-10
-4.12683e-10
-4.34647e-10
-4.56615e-10
-4.78568e-10
-5.0052e-10
-5.22491e-10
-5.44447e-10
-5.66418e-10
-5.88376e-10
-6.10331e-10
-6.32286e-10
-6.54263e-10
-6.76225e-10
-6.98173e-10
-7.20139e-10
-7.42105e-10
-7.64078e-10
-7.86036e-10
-8.07972e-10
-8.29951e-10
-8.5192e-10
-8.73876e-10
-8.95828e-10
-9.17802e-10
-9.39765e-10
-9.61723e-10
-9.83683e-10
-1.00564e-09
-1.02761e-09
-1.04958e-09
-1.07155e-09
-1.09349e-09
-1.11547e-09
-1.13743e-09
-1.15941e-09
-1.18138e-09
-1.20336e-09
-1.22536e-09
-1.24736e-09
-1.26936e-09
-1.29141e-09
-1.31348e-09
-1.33563e-09
-1.35782e-09
-1.38011e-09
-1.40257e-09
-1.42523e-09
-1.44816e-09
-1.47155e-09
-1.49551e-09
-1.52034e-09
-1.54632e-09
-1.57403e-09
-1.60408e-09
-1.63735e-09
-1.67537e-09
-1.71981e-09
-1.77295e-09
-1.8378e-09
-1.91894e-09
-2.02078e-09
-2.1461e-09
-2.2416e-09
-2.47276e-09
1.48091e-10
-1.33006e-11
-3.4764e-11
-5.82454e-11
-8.16008e-11
-1.04353e-10
-1.26757e-10
-1.48954e-10
-1.71035e-10
-1.93066e-10
-2.15062e-10
-2.37038e-10
-2.58995e-10
-2.80945e-10
-3.02899e-10
-3.24872e-10
-3.46831e-10
-3.68773e-10
-3.90735e-10
-4.12701e-10
-4.34653e-10
-4.56593e-10
-4.78568e-10
-5.0055e-10
-5.22496e-10
-5.44456e-10
-5.66415e-10
-5.88369e-10
-6.10349e-10
-6.32314e-10
-6.54257e-10
-6.76227e-10
-6.98189e-10
-7.20155e-10
-7.42107e-10
-7.64063e-10
-7.86022e-10
-8.08014e-10
-8.29961e-10
-8.51903e-10
-8.73886e-10
-8.95848e-10
-9.17796e-10
-9.39764e-10
-9.6172e-10
-9.83695e-10
-1.00565e-09
-1.02762e-09
-1.04957e-09
-1.07153e-09
-1.09352e-09
-1.11547e-09
-1.13744e-09
-1.15941e-09
-1.18139e-09
-1.20336e-09
-1.22536e-09
-1.24735e-09
-1.26939e-09
-1.29143e-09
-1.3135e-09
-1.33561e-09
-1.35782e-09
-1.38014e-09
-1.40259e-09
-1.42527e-09
-1.44824e-09
-1.47163e-09
-1.49567e-09
-1.52056e-09
-1.54672e-09
-1.57453e-09
-1.6048e-09
-1.63857e-09
-1.67692e-09
-1.72186e-09
-1.77586e-09
-1.84165e-09
-1.92372e-09
-2.02628e-09
-2.15187e-09
-2.1968e-09
-2.50203e-09
1.06807e-10
-9.16842e-12
-3.5057e-11
-5.86208e-11
-8.17868e-11
-1.04446e-10
-1.26808e-10
-1.48996e-10
-1.71056e-10
-1.9309e-10
-2.15077e-10
-2.37048e-10
-2.58996e-10
-2.80959e-10
-3.02916e-10
-3.24862e-10
-3.46806e-10
-3.68773e-10
-3.90738e-10
-4.1269e-10
-4.34648e-10
-4.56628e-10
-4.78569e-10
-5.00521e-10
-5.22502e-10
-5.44451e-10
-5.66418e-10
-5.88378e-10
-6.10332e-10
-6.32294e-10
-6.54266e-10
-6.76222e-10
-6.98186e-10
-7.2014e-10
-7.42105e-10
-7.64075e-10
-7.86045e-10
-8.07982e-10
-8.29957e-10
-8.51925e-10
-8.73881e-10
-8.95831e-10
-9.17811e-10
-9.39765e-10
-9.61722e-10
-9.8369e-10
-1.00565e-09
-1.02761e-09
-1.04958e-09
-1.07154e-09
-1.0935e-09
-1.11548e-09
-1.13743e-09
-1.15941e-09
-1.18138e-09
-1.20337e-09
-1.22535e-09
-1.24735e-09
-1.26936e-09
-1.29141e-09
-1.31348e-09
-1.33563e-09
-1.35784e-09
-1.38014e-09
-1.40262e-09
-1.42529e-09
-1.44827e-09
-1.47172e-09
-1.49578e-09
-1.52075e-09
-1.54692e-09
-1.57496e-09
-1.60541e-09
-1.63938e-09
-1.67817e-09
-1.72359e-09
-1.77796e-09
-1.84481e-09
-1.92795e-09
-2.03219e-09
-2.16209e-09
-2.24831e-09
-2.51422e-09
8.92556e-11
-1.20776e-11
-3.65146e-11
-5.91316e-11
-8.20156e-11
-1.04575e-10
-1.26916e-10
-1.4904e-10
-1.71118e-10
-1.93115e-10
-2.15097e-10
-2.3708e-10
-2.5902e-10
-2.80949e-10
-3.02918e-10
-3.24869e-10
-3.46841e-10
-3.6879e-10
-3.90741e-10
-4.12699e-10
-4.34659e-10
-4.5659e-10
-4.78595e-10
-5.00562e-10
-5.2249e-10
-5.44457e-10
-5.66425e-10
-5.88372e-10
-6.10362e-10
-6.32313e-10
-6.54268e-10
-6.76227e-10
-6.98204e-10
-7.2016e-10
-7.4211e-10
-7.64065e-10
-7.86043e-10
-8.08013e-10
-8.29968e-10
-8.51913e-10
-8.73904e-10
-8.95855e-10
-9.17795e-10
-9.39781e-10
-9.61733e-10
-9.837e-10
-1.00566e-09
-1.02763e-09
-1.04957e-09
-1.07155e-09
-1.0935e-09
-1.11547e-09
-1.13744e-09
-1.15941e-09
-1.18139e-09
-1.20335e-09
-1.22537e-09
-1.24736e-09
-1.26938e-09
-1.29142e-09
-1.3135e-09
-1.33562e-09
-1.35784e-09
-1.38015e-09
-1.40262e-09
-1.42533e-09
-1.44832e-09
-1.4718e-09
-1.49589e-09
-1.5209e-09
-1.5472e-09
-1.57527e-09
-1.60597e-09
-1.64018e-09
-1.67933e-09
-1.72524e-09
-1.78026e-09
-1.84771e-09
-1.9315e-09
-2.03584e-09
-2.16809e-09
-2.30463e-09
-2.51721e-09
8.06246e-11
-1.56728e-11
-3.76311e-11
-5.9448e-11
-8.21714e-11
-1.04652e-10
-1.26952e-10
-1.49066e-10
-1.71124e-10
-1.9313e-10
-2.15108e-10
-2.37055e-10
-2.59014e-10
-2.80974e-10
-3.02925e-10
-3.2487e-10
-3.46812e-10
-3.68772e-10
-3.90741e-10
-4.12692e-10
-4.34645e-10
-4.56624e-10
-4.78555e-10
-5.00519e-10
-5.22511e-10
-5.44453e-10
-5.66413e-10
-5.88381e-10
-6.10328e-10
-6.32302e-10
-6.54264e-10
-6.76229e-10
-6.98177e-10
-7.20142e-10
-7.4211e-10
-7.64073e-10
-7.86035e-10
-8.07998e-10
-8.29964e-10
-8.51913e-10
-8.73883e-10
-8.95846e-10
-9.17809e-10
-9.39772e-10
-9.61709e-10
-9.83691e-10
-1.00565e-09
-1.02761e-09
-1.04959e-09
-1.07153e-09
-1.0935e-09
-1.11547e-09
-1.13744e-09
-1.15941e-09
-1.18137e-09
-1.20337e-09
-1.22533e-09
-1.24733e-09
-1.26936e-09
-1.29141e-09
-1.31349e-09
-1.33562e-09
-1.35783e-09
-1.38015e-09
-1.40262e-09
-1.42531e-09
-1.44835e-09
-1.47181e-09
-1.49595e-09
-1.521e-09
-1.54736e-09
-1.57556e-09
-1.60636e-09
-1.64076e-09
-1.68017e-09
-1.72641e-09
-1.78189e-09
-1.8499e-09
-1.93412e-09
-2.0382e-09
-2.16961e-09
-2.32669e-09
-2.52174e-09
5.22841e-11
-1.42442e-11
-3.70281e-11
-5.95842e-11
-8.22553e-11
-1.04718e-10
-1.26983e-10
-1.49095e-10
-1.71141e-10
-1.93145e-10
-2.15116e-10
-2.37081e-10
-2.59036e-10
-2.80969e-10
-3.02914e-10
-3.2488e-10
-3.46837e-10
-3.68797e-10
-3.90742e-10
-4.12696e-10
-4.34655e-10
-4.56614e-10
-4.78597e-10
-5.00551e-10
-5.22484e-10
-5.44458e-10
-5.66424e-10
-5.88375e-10
-6.10363e-10
-6.32307e-10
-6.54274e-10
-6.76219e-10
-6.98206e-10
-7.20159e-10
-7.42104e-10
-7.64073e-10
-7.86045e-10
-8.07995e-10
-8.29959e-10
-8.51927e-10
-8.73882e-10
-8.95841e-10
-9.17798e-10
-9.39773e-10
-9.61735e-10
-9.83699e-10
-1.00566e-09
-1.02762e-09
-1.04957e-09
-1.07154e-09
-1.09352e-09
-1.11547e-09
-1.13743e-09
-1.1594e-09
-1.18138e-09
-1.20336e-09
-1.22537e-09
-1.24735e-09
-1.26937e-09
-1.2914e-09
-1.31347e-09
-1.33562e-09
-1.35783e-09
-1.38014e-09
-1.40262e-09
-1.42534e-09
-1.44834e-09
-1.47187e-09
-1.49599e-09
-1.52109e-09
-1.54747e-09
-1.57576e-09
-1.60665e-09
-1.64119e-09
-1.68078e-09
-1.7273e-09
-1.78313e-09
-1.85152e-09
-1.93629e-09
-2.0418e-09
-2.17444e-09
-2.37691e-09
-2.52977e-09
5.00423e-11
-1.70514e-11
-3.7883e-11
-5.97264e-11
-8.23281e-11
-1.04756e-10
-1.27013e-10
-1.49095e-10
-1.71152e-10
-1.93146e-10
-2.15125e-10
-2.3705e-10
-2.59024e-10
-2.80973e-10
-3.02944e-10
-3.24861e-10
-3.46836e-10
-3.68767e-10
-3.90737e-10
-4.12699e-10
-4.34652e-10
-4.56607e-10
-4.78559e-10
-5.00526e-10
-5.22512e-10
-5.44459e-10
-5.66405e-10
-5.88384e-10
-6.1033e-10
-6.32307e-10
-6.54266e-10
-6.76231e-10
-6.98173e-10
-7.20148e-10
-7.42122e-10
-7.64057e-10
-7.86038e-10
-8.07992e-10
-8.29957e-10
-8.51919e-10
-8.7388e-10
-8.95838e-10
-9.17801e-10
-9.39773e-10
-9.61726e-10
-9.83692e-10
-1.00564e-09
-1.0276e-09
-1.04959e-09
-1.07154e-09
-1.09349e-09
-1.11546e-09
-1.13745e-09
-1.15941e-09
-1.18138e-09
-1.20335e-09
-1.22532e-09
-1.24732e-09
-1.26935e-09
-1.2914e-09
-1.31349e-09
-1.33561e-09
-1.35781e-09
-1.38013e-09
-1.4026e-09
-1.42531e-09
-1.44835e-09
-1.47182e-09
-1.49601e-09
-1.52109e-09
-1.54755e-09
-1.57585e-09
-1.60682e-09
-1.64145e-09
-1.68116e-09
-1.72785e-09
-1.78393e-09
-1.85259e-09
-1.93762e-09
-2.04279e-09
-2.17449e-09
-2.37897e-09
-2.53552e-09
4.91164e-11
-1.53308e-11
-3.72035e-11
-5.97252e-11
-8.2373e-11
-1.04782e-10
-1.27015e-10
-1.49137e-10
-1.7115e-10
-1.93158e-10
-2.15104e-10
-2.37088e-10
-2.5904e-10
-2.8097e-10
-3.02905e-10
-3.24883e-10
-3.46831e-10
-3.68798e-10
-3.90732e-10
-4.12692e-10
-4.34652e-10
-4.56634e-10
-4.78591e-10
-5.00535e-10
-5.22486e-10
-5.44444e-10
-5.66435e-10
-5.88378e-10
-6.10355e-10
-6.32303e-10
-6.54265e-10
-6.7622e-10
-6.98207e-10
-7.20158e-10
-7.42099e-10
-7.64069e-10
-7.86039e-10
-8.07991e-10
-8.29954e-10
-8.51914e-10
-8.73878e-10
-8.95836e-10
-9.17801e-10
-9.39766e-10
-9.61717e-10
-9.83689e-10
-1.00565e-09
-1.02763e-09
-1.04956e-09
-1.07153e-09
-1.09352e-09
-1.11547e-09
-1.13743e-09
-1.15939e-09
-1.18136e-09
-1.20336e-09
-1.22536e-09
-1.24734e-09
-1.26936e-09
-1.29139e-09
-1.31344e-09
-1.3356e-09
-1.3578e-09
-1.38012e-09
-1.40259e-09
-1.42531e-09
-1.44831e-09
-1.47184e-09
-1.49597e-09
-1.5211e-09
-1.54752e-09
-1.57587e-09
-1.60685e-09
-1.64154e-09
-1.68131e-09
-1.72809e-09
-1.78427e-09
-1.8531e-09
-1.93834e-09
-2.04437e-09
-2.17657e-09
-2.38152e-09
-2.53919e-09
4.82328e-11
-1.64199e-11
-3.75978e-11
-5.9785e-11
-8.23814e-11
-1.04804e-10
-1.27033e-10
-1.49101e-10
-1.71159e-10
-1.93158e-10
-2.15131e-10
-2.37064e-10
-2.59026e-10
-2.80978e-10
-3.02944e-10
-3.24858e-10
-3.46846e-10
-3.68766e-10
-3.90746e-10
-4.12706e-10
-4.3465e-10
-4.56595e-10
-4.78561e-10
-5.00543e-10
-5.22511e-10
-5.44471e-10
-5.66401e-10
-5.88385e-10
-6.10343e-10
-6.3231e-10
-6.54271e-10
-6.76227e-10
-6.98174e-10
-7.20143e-10
-7.42123e-10
-7.6406e-10
-7.86048e-10
-8.07984e-10
-8.29951e-10
-8.51912e-10
-8.73878e-10
-8.95828e-10
-9.17797e-10
-9.39765e-10
-9.61727e-10
-9.83686e-10
-1.00565e-09
-1.0276e-09
-1.0496e-09
-1.07155e-09
-1.09348e-09
-1.11546e-09
-1.13745e-09
-1.15941e-09
-1.18138e-09
-1.20334e-09
-1.2253e-09
-1.24732e-09
-1.26934e-09
-1.29138e-09
-1.31347e-09
-1.33557e-09
-1.35778e-09
-1.38009e-09
-1.40256e-09
-1.42526e-09
-1.44829e-09
-1.47177e-09
-1.49594e-09
-1.52102e-09
-1.54746e-09
-1.57579e-09
-1.60678e-09
-1.64142e-09
-1.68121e-09
-1.72799e-09
-1.78421e-09
-1.85301e-09
-1.93826e-09
-2.04405e-09
-2.17625e-09
-2.38162e-09
-2.54043e-09
4.82033e-11
-1.64105e-11
-3.75957e-11
-5.977e-11
-8.23866e-11
-1.04792e-10
-1.27029e-10
-1.49134e-10
-1.71155e-10
-1.93156e-10
-2.15111e-10
-2.37079e-10
-2.59042e-10
-2.80968e-10
-3.02902e-10
-3.24871e-10
-3.46834e-10
-3.68793e-10
-3.90715e-10
-4.12686e-10
-4.34659e-10
-4.56641e-10
-4.78588e-10
-5.00526e-10
-5.22489e-10
-5.44441e-10
-5.66429e-10
-5.8838e-10
-6.1034e-10
-6.32299e-10
-6.54255e-10
-6.76228e-10
-6.98198e-10
-7.20143e-10
-7.42108e-10
-7.64079e-10
-7.86019e-10
-8.07991e-10
-8.29949e-10
-8.51918e-10
-8.73869e-10
-8.95841e-10
-9.17794e-10
-9.39767e-10
-9.61723e-10
-9.83688e-10
-1.00565e-09
-1.02762e-09
-1.04956e-09
-1.07152e-09
-1.09351e-09
-1.11547e-09
-1.13742e-09
-1.15939e-09
-1.18135e-09
-1.20335e-09
-1.22535e-09
-1.24732e-09
-1.26933e-09
-1.29136e-09
-1.31342e-09
-1.33557e-09
-1.35776e-09
-1.38008e-09
-1.40254e-09
-1.42524e-09
-1.44823e-09
-1.47172e-09
-1.49584e-09
-1.52093e-09
-1.54733e-09
-1.57561e-09
-1.60655e-09
-1.64116e-09
-1.68087e-09
-1.72755e-09
-1.78365e-09
-1.85236e-09
-1.93748e-09
-2.04305e-09
-2.17515e-09
-2.38044e-09
-2.53954e-09
4.9099e-11
-1.54726e-11
-3.72308e-11
-5.97335e-11
-8.23593e-11
-1.04794e-10
-1.2701e-10
-1.4912e-10
-1.71136e-10
-1.93152e-10
-2.15123e-10
-2.37072e-10
-2.59025e-10
-2.8099e-10
-3.02927e-10
-3.24863e-10
-3.46847e-10
-3.68776e-10
-3.90742e-10
-4.12708e-10
-4.34648e-10
-4.56597e-10
-4.78562e-10
-5.00543e-10
-5.22509e-10
-5.44471e-10
-5.66408e-10
-5.88381e-10
-6.10337e-10
-6.32313e-10
-6.54282e-10
-6.76229e-10
-6.9818e-10
-7.2014e-10
-7.42107e-10
-7.64071e-10
-7.86058e-10
-8.07989e-10
-8.29948e-10
-8.51906e-10
-8.73879e-10
-8.9584e-10
-9.17797e-10
-9.39764e-10
-9.61723e-10
-9.8369e-10
-1.00564e-09
-1.0276e-09
-1.04959e-09
-1.07155e-09
-1.09349e-09
-1.11546e-09
-1.13745e-09
-1.1594e-09
-1.18138e-09
-1.20334e-09
-1.2253e-09
-1.24732e-09
-1.26932e-09
-1.29136e-09
-1.31345e-09
-1.33554e-09
-1.35774e-09
-1.38003e-09
-1.40249e-09
-1.42517e-09
-1.44818e-09
-1.47162e-09
-1.49573e-09
-1.52078e-09
-1.54714e-09
-1.57536e-09
-1.60621e-09
-1.6407e-09
-1.68028e-09
-1.72677e-09
-1.78268e-09
-1.85112e-09
-1.93596e-09
-2.04154e-09
-2.17358e-09
-2.37805e-09
-2.53695e-09
5.00324e-11
-1.69526e-11
-3.78689e-11
-5.9715e-11
-8.2317e-11
-1.04753e-10
-1.27e-10
-1.49106e-10
-1.71142e-10
-1.93141e-10
-2.15122e-10
-2.3706e-10
-2.59029e-10
-2.80957e-10
-3.02909e-10
-3.24863e-10
-3.46829e-10
-3.68785e-10
-3.90716e-10
-4.12682e-10
-4.34654e-10
-4.56631e-10
-4.78582e-10
-5.0053e-10
-5.22485e-10
-5.44445e-10
-5.66422e-10
-5.88384e-10
-6.10347e-10
-6.32296e-10
-6.54239e-10
-6.76229e-10
-6.98185e-10
-7.20165e-10
-7.42104e-10
-7.64073e-10
-7.86031e-10
-8.07993e-10
-8.29947e-10
-8.51924e-10
-8.73876e-10