/*--------------------------------*- C++ -*----------------------------------*\
| =========                 |                                                 |
| \\      /  F ield         | OpenFOAM: The Open Source CFD Toolbox           |
|  \\    /   O peration     | Version:  v1906                                 |
|   \\  /    A nd           | Web:      www.OpenFOAM.com                      |
|    \\/     M anipulation  |                                                 |
\*---------------------------------------------------------------------------*/
FoamFile
{
    version     2.0;
    format      ascii;
    class       volScalarField;
    location    "41.5";
    object      p;
}
// * * * * * * * * * * * * * * * * * * * * * * * * * * * * * * * * * * * * * //

dimensions      [0 2 -2 0 0 0 0];


internalField   nonuniform List<scalar> 
243374
(
-1.13016e-16
-3.94046e-11
-5.90888e-11
-8.20675e-11
-1.04724e-10
-1.27063e-10
-1.49262e-10
-1.71344e-10
-1.93386e-10
-2.15385e-10
-2.37361e-10
-2.59343e-10
-2.81319e-10
-3.03282e-10
-3.25253e-10
-3.47213e-10
-3.69193e-10
-3.91169e-10
-4.13137e-10
-4.35121e-10
-4.57109e-10
-4.79068e-10
-5.0104e-10
-5.23032e-10
-5.45001e-10
-5.66979e-10
-5.88959e-10
-6.10931e-10
-6.32909e-10
-6.54891e-10
-6.7687e-10
-6.98843e-10
-7.20821e-10
-7.42802e-10
-7.64784e-10
-7.8676e-10
-8.08727e-10
-8.30713e-10
-8.52696e-10
-8.74665e-10
-8.9664e-10
-9.1863e-10
-9.40598e-10
-9.62579e-10
-9.84555e-10
-1.00654e-09
-1.02851e-09
-1.0505e-09
-1.07248e-09
-1.09446e-09
-1.11645e-09
-1.13843e-09
-1.16042e-09
-1.18241e-09
-1.20442e-09
-1.22643e-09
-1.24845e-09
-1.27049e-09
-1.29254e-09
-1.31464e-09
-1.33679e-09
-1.359e-09
-1.38131e-09
-1.40374e-09
-1.42636e-09
-1.44924e-09
-1.47248e-09
-1.49626e-09
-1.52076e-09
-1.54626e-09
-1.57325e-09
-1.6022e-09
-1.63395e-09
-1.66946e-09
-1.7105e-09
-1.75878e-09
-1.81682e-09
-1.88746e-09
-1.96851e-09
-2.09895e-09
-1.30756e-11
-4.01534e-11
-5.94602e-11
-8.22384e-11
-1.04817e-10
-1.27128e-10
-1.49307e-10
-1.71383e-10
-1.93398e-10
-2.154e-10
-2.37384e-10
-2.59354e-10
-2.81317e-10
-3.03286e-10
-3.25256e-10
-3.47234e-10
-3.69206e-10
-3.91173e-10
-4.1316e-10
-4.35124e-10
-4.57098e-10
-4.79096e-10
-5.01065e-10
-5.23024e-10
-5.45014e-10
-5.6699e-10
-5.88965e-10
-6.10943e-10
-6.32919e-10
-6.54894e-10
-6.76876e-10
-6.98856e-10
-7.2083e-10
-7.42808e-10
-7.6479e-10
-7.86764e-10
-8.08746e-10
-8.30718e-10
-8.52698e-10
-8.74678e-10
-8.96654e-10
-9.18631e-10
-9.4061e-10
-9.62591e-10
-9.84558e-10
-1.00655e-09
-1.02853e-09
-1.0505e-09
-1.07249e-09
-1.09448e-09
-1.11645e-09
-1.13844e-09
-1.16042e-09
-1.18243e-09
-1.20442e-09
-1.22644e-09
-1.24845e-09
-1.27049e-09
-1.29255e-09
-1.31465e-09
-1.33679e-09
-1.359e-09
-1.3813e-09
-1.40375e-09
-1.42636e-09
-1.44925e-09
-1.47253e-09
-1.49631e-09
-1.52086e-09
-1.54645e-09
-1.57347e-09
-1.60257e-09
-1.63451e-09
-1.67041e-09
-1.71169e-09
-1.76035e-09
-1.81885e-09
-1.89014e-09
-1.9731e-09
-2.08959e-09
-2.98609e-11
-4.03255e-11
-5.97003e-11
-8.23315e-11
-1.04858e-10
-1.27143e-10
-1.49297e-10
-1.71378e-10
-1.9341e-10
-2.154e-10
-2.37368e-10
-2.59347e-10
-2.81318e-10
-3.03284e-10
-3.2525e-10
-3.47218e-10
-3.69187e-10
-3.91172e-10
-4.13135e-10
-4.35119e-10
-4.57106e-10
-4.79052e-10
-5.01039e-10
-5.23043e-10
-5.45002e-10
-5.66978e-10
-5.88961e-10
-6.10928e-10
-6.32909e-10
-6.54883e-10
-6.7686e-10
-6.98841e-10
-7.20827e-10
-7.42807e-10
-7.64774e-10
-7.86755e-10
-8.08727e-10
-8.30712e-10
-8.52697e-10
-8.74662e-10
-8.96648e-10
-9.18629e-10
-9.406e-10
-9.62571e-10
-9.84562e-10
-1.00653e-09
-1.02851e-09
-1.05051e-09
-1.07247e-09
-1.09445e-09
-1.11644e-09
-1.13843e-09
-1.16042e-09
-1.18241e-09
-1.20441e-09
-1.22641e-09
-1.24844e-09
-1.27046e-09
-1.29252e-09
-1.31463e-09
-1.33678e-09
-1.35898e-09
-1.38129e-09
-1.40371e-09
-1.42635e-09
-1.44925e-09
-1.47251e-09
-1.49634e-09
-1.52088e-09
-1.5465e-09
-1.5736e-09
-1.6028e-09
-1.63481e-09
-1.6709e-09
-1.71244e-09
-1.76142e-09
-1.82031e-09
-1.89191e-09
-1.97591e-09
-2.07564e-09
1.27093e-10
-2.23169e-11
-3.7865e-11
-5.97239e-11
-8.23847e-11
-1.04895e-10
-1.2716e-10
-1.49355e-10
-1.71393e-10
-1.93404e-10
-2.15404e-10
-2.37398e-10
-2.59351e-10
-2.81326e-10
-3.0328e-10
-3.25256e-10
-3.47222e-10
-3.6921e-10
-3.91164e-10
-4.13162e-10
-4.35137e-10
-4.57096e-10
-4.79098e-10
-5.01056e-10
-5.23009e-10
-5.45007e-10
-5.66984e-10
-5.88963e-10
-6.10947e-10
-6.32914e-10
-6.549e-10
-6.76883e-10
-6.9885e-10
-7.20816e-10
-7.42796e-10
-7.64798e-10
-7.86753e-10
-8.08745e-10
-8.30712e-10
-8.52683e-10
-8.74664e-10
-8.96648e-10
-9.18624e-10
-9.406e-10
-9.626e-10
-9.84548e-10
-1.00655e-09
-1.02853e-09
-1.05048e-09
-1.07249e-09
-1.09448e-09
-1.11644e-09
-1.13842e-09
-1.1604e-09
-1.18241e-09
-1.20441e-09
-1.22644e-09
-1.24844e-09
-1.27049e-09
-1.29254e-09
-1.31461e-09
-1.33676e-09
-1.35897e-09
-1.38127e-09
-1.40373e-09
-1.42635e-09
-1.44924e-09
-1.47254e-09
-1.49633e-09
-1.52092e-09
-1.54657e-09
-1.57373e-09
-1.60296e-09
-1.63514e-09
-1.67132e-09
-1.71304e-09
-1.76226e-09
-1.82147e-09
-1.89357e-09
-1.98105e-09
-2.0829e-09
-2.19682e-09
1.162e-10
-2.82491e-11
-3.86538e-11
-5.97698e-11
-8.24234e-11
-1.04918e-10
-1.27178e-10
-1.49312e-10
-1.71405e-10
-1.93419e-10
-2.15408e-10
-2.37385e-10
-2.59341e-10
-2.81311e-10
-3.03299e-10
-3.25251e-10
-3.47237e-10
-3.69181e-10
-3.91179e-10
-4.13133e-10
-4.35105e-10
-4.57087e-10
-4.79046e-10
-5.01049e-10
-5.23053e-10
-5.45007e-10
-5.66988e-10
-5.88957e-10
-6.10925e-10
-6.32913e-10
-6.54881e-10
-6.76861e-10
-6.98835e-10
-7.20824e-10
-7.42815e-10
-7.6477e-10
-7.86762e-10
-8.08731e-10
-8.30702e-10
-8.52684e-10
-8.74666e-10
-8.96641e-10
-9.18618e-10
-9.40595e-10
-9.62572e-10
-9.84565e-10
-1.00654e-09
-1.0285e-09
-1.05052e-09
-1.07247e-09
-1.09444e-09
-1.11644e-09
-1.13844e-09
-1.16043e-09
-1.18241e-09
-1.20439e-09
-1.22639e-09
-1.24843e-09
-1.27044e-09
-1.2925e-09
-1.31463e-09
-1.33675e-09
-1.35896e-09
-1.38126e-09
-1.40368e-09
-1.4263e-09
-1.44923e-09
-1.47248e-09
-1.49632e-09
-1.52091e-09
-1.54657e-09
-1.57375e-09
-1.60304e-09
-1.63524e-09
-1.67156e-09
-1.71343e-09
-1.76279e-09
-1.82221e-09
-1.89462e-09
-1.98183e-09
-2.0801e-09
-2.2141e-09
-2.43002e-09
1.10846e-10
-2.14349e-11
-3.72391e-11
-5.9693e-11
-8.24465e-11
-1.0491e-10
-1.27189e-10
-1.4937e-10
-1.71399e-10
-1.93416e-10
-2.15406e-10
-2.37386e-10
-2.59362e-10
-2.81324e-10
-3.03272e-10
-3.25268e-10
-3.47204e-10
-3.69211e-10
-3.91157e-10
-4.1315e-10
-4.3514e-10
-4.57109e-10
-4.791e-10
-5.01052e-10
-5.23001e-10
-5.45007e-10
-5.66975e-10
-5.88958e-10
-6.10941e-10
-6.32907e-10
-6.54891e-10
-6.76877e-10
-6.98866e-10
-7.20825e-10
-7.42786e-10
-7.6478e-10
-7.86746e-10
-8.08727e-10
-8.30706e-10
-8.52685e-10
-8.74655e-10
-8.96644e-10
-9.18618e-10
-9.40601e-10
-9.62576e-10
-9.84553e-10
-1.00653e-09
-1.02853e-09
-1.05047e-09
-1.07248e-09
-1.09447e-09
-1.11645e-09
-1.1384e-09
-1.16039e-09
-1.1824e-09
-1.20441e-09
-1.22642e-09
-1.24842e-09
-1.27046e-09
-1.29252e-09
-1.31458e-09
-1.33674e-09
-1.35893e-09
-1.38123e-09
-1.40367e-09
-1.42629e-09
-1.44918e-09
-1.47247e-09
-1.49628e-09
-1.52087e-09
-1.54653e-09
-1.57372e-09
-1.60302e-09
-1.63529e-09
-1.67162e-09
-1.71354e-09
-1.76301e-09
-1.82255e-09
-1.89518e-09
-1.98403e-09
-2.08773e-09
-2.22239e-09
-2.42935e-09
1.06246e-10
-2.49412e-11
-3.77869e-11
-5.97459e-11
-8.24461e-11
-1.04949e-10
-1.27187e-10
-1.49338e-10
-1.71411e-10
-1.93409e-10
-2.15425e-10
-2.37386e-10
-2.59329e-10
-2.81329e-10
-3.03302e-10
-3.25244e-10
-3.47234e-10
-3.6919e-10
-3.91191e-10
-4.13151e-10
-4.35105e-10
-4.5708e-10
-4.79051e-10
-5.0105e-10
-5.23042e-10
-5.45011e-10
-5.66988e-10
-5.88956e-10
-6.10937e-10
-6.32918e-10
-6.54888e-10
-6.76861e-10
-6.98824e-10
-7.20815e-10
-7.42819e-10
-7.64785e-10
-7.86749e-10
-8.08726e-10
-8.307e-10
-8.5267e-10
-8.74656e-10
-8.96618e-10
-9.18615e-10
-9.40576e-10
-9.62574e-10
-9.84549e-10
-1.00653e-09
-1.0285e-09
-1.05052e-09
-1.07248e-09
-1.09444e-09
-1.11642e-09
-1.13843e-09
-1.16042e-09
-1.1824e-09
-1.20438e-09
-1.22639e-09
-1.24842e-09
-1.27043e-09
-1.29248e-09
-1.3146e-09
-1.33671e-09
-1.35892e-09
-1.38121e-09
-1.40363e-09
-1.42624e-09
-1.44914e-09
-1.4724e-09
-1.49622e-09
-1.52079e-09
-1.54645e-09
-1.57362e-09
-1.60291e-09
-1.63515e-09
-1.6715e-09
-1.71343e-09
-1.76289e-09
-1.82244e-09
-1.89512e-09
-1.98359e-09
-2.08483e-09
-2.22467e-09
-2.42911e-09
1.04539e-10
-2.49031e-11
-3.77724e-11
-5.97294e-11
-8.24461e-11
-1.04912e-10
-1.27201e-10
-1.49345e-10
-1.71408e-10
-1.93432e-10
-2.15393e-10
-2.37386e-10
-2.59365e-10
-2.81303e-10
-3.0328e-10
-3.25264e-10
-3.47205e-10
-3.69194e-10
-3.91155e-10
-4.13132e-10
-4.35136e-10
-4.57111e-10
-4.79087e-10
-5.01048e-10
-5.23016e-10
-5.4499e-10
-5.66974e-10
-5.88962e-10
-6.10928e-10
-6.32901e-10
-6.54888e-10
-6.76871e-10
-6.9886e-10
-7.20833e-10
-7.42772e-10
-7.64779e-10
-7.86747e-10
-8.08729e-10
-8.3071e-10
-8.5269e-10
-8.74658e-10
-8.96643e-10
-9.18613e-10
-9.40597e-10
-9.62574e-10
-9.84546e-10
-1.00654e-09
-1.02852e-09
-1.05046e-09
-1.07246e-09
-1.09446e-09
-1.11644e-09
-1.1384e-09
-1.16039e-09
-1.18239e-09
-1.2044e-09
-1.2264e-09
-1.2484e-09
-1.27044e-09
-1.29249e-09
-1.31456e-09
-1.3367e-09
-1.35889e-09
-1.38118e-09
-1.4036e-09
-1.42621e-09
-1.44908e-09
-1.47233e-09
-1.49612e-09
-1.52069e-09
-1.5463e-09
-1.57346e-09
-1.6027e-09
-1.6349e-09
-1.67119e-09
-1.71304e-09
-1.76245e-09
-1.8219e-09
-1.89449e-09
-1.98277e-09
-2.08393e-09
-2.22431e-09
-2.4284e-09
1.05344e-10
-2.169e-11
-3.72901e-11
-5.97127e-11
-8.24424e-11
-1.04941e-10
-1.27175e-10
-1.49351e-10
-1.71402e-10
-1.93395e-10
-2.15424e-10
-2.37385e-10
-2.59334e-10
-2.81339e-10
-3.03285e-10
-3.25256e-10
-3.47219e-10
-3.69204e-10
-3.91194e-10
-4.13159e-10
-4.35108e-10
-4.57085e-10
-4.79063e-10
-5.0105e-10
-5.23021e-10
-5.45011e-10
-5.66991e-10
-5.88952e-10
-6.10947e-10
-6.32924e-10
-6.5489e-10
-6.76863e-10
-6.98835e-10
-7.20806e-10
-7.42829e-10
-7.64775e-10
-7.8675e-10
-8.08728e-10
-8.30705e-10
-8.52666e-10
-8.74661e-10
-8.96638e-10
-9.18614e-10
-9.40591e-10
-9.62574e-10
-9.84558e-10
-1.00652e-09
-1.02851e-09
-1.0505e-09
-1.07249e-09
-1.09445e-09
-1.11643e-09
-1.13842e-09
-1.16041e-09
-1.18239e-09
-1.20438e-09
-1.22639e-09
-1.24841e-09
-1.27042e-09
-1.29247e-09
-1.31457e-09
-1.33668e-09
-1.35887e-09
-1.38114e-09
-1.40355e-09
-1.42615e-09
-1.44901e-09
-1.47225e-09
-1.49602e-09
-1.52054e-09
-1.54612e-09
-1.57321e-09
-1.60241e-09
-1.6345e-09
-1.67069e-09
-1.71242e-09
-1.76165e-09
-1.82091e-09
-1.89328e-09
-1.98187e-09
-2.08564e-09
-2.22198e-09
-2.42705e-09
1.0886e-10
-2.80885e-11
-3.86449e-11
-5.97781e-11
-8.24245e-11
-1.04888e-10
-1.27196e-10
-1.49307e-10
-1.71402e-10
-1.93423e-10
-2.15387e-10
-2.37388e-10
-2.59364e-10
-2.8129e-10
-3.03286e-10
-3.25249e-10
-3.47218e-10
-3.6918e-10
-3.91152e-10
-4.13129e-10
-4.35128e-10
-4.57095e-10
-4.79078e-10
-5.01047e-10
-5.23024e-10
-5.44999e-10
-5.66966e-10
-5.88959e-10
-6.10921e-10
-6.32897e-10
-6.54888e-10
-6.76864e-10
-6.98844e-10
-7.20836e-10
-7.42774e-10
-7.6477e-10
-7.86768e-10
-8.08728e-10
-8.30712e-10
-8.52687e-10
-8.7466e-10
-8.96641e-10
-9.18616e-10
-9.40596e-10
-9.62573e-10
-9.84556e-10
-1.00654e-09
-1.02851e-09
-1.05048e-09
-1.07244e-09
-1.09445e-09
-1.11643e-09
-1.13839e-09
-1.16039e-09
-1.18238e-09
-1.20438e-09
-1.22637e-09
-1.24838e-09
-1.27041e-09
-1.29245e-09
-1.31451e-09
-1.33665e-09
-1.35883e-09
-1.38111e-09
-1.40351e-09
-1.42609e-09
-1.44893e-09
-1.47214e-09
-1.49588e-09
-1.52036e-09
-1.5459e-09
-1.57292e-09
-1.60201e-09
-1.63399e-09
-1.67002e-09
-1.71153e-09
-1.76053e-09
-1.8195e-09
-1.89146e-09
-1.97843e-09
-2.07586e-09
-2.21518e-09
-2.42572e-09
1.2051e-10
-2.24283e-11
-3.78878e-11
-5.97073e-11
-8.23881e-11
-1.04898e-10
-1.2716e-10
-1.4932e-10
-1.71395e-10
-1.93398e-10
-2.15417e-10
-2.37378e-10
-2.59336e-10
-2.81334e-10
-3.03283e-10
-3.25262e-10
-3.47218e-10
-3.69212e-10
-3.91195e-10
-4.13162e-10
-4.35114e-10
-4.57097e-10
-4.79069e-10
-5.01047e-10
-5.23026e-10
-5.45001e-10
-5.66996e-10
-5.88957e-10
-6.10947e-10
-6.32925e-10
-6.54895e-10
-6.76867e-10
-6.98856e-10
-7.20806e-10
-7.42821e-10
-7.64794e-10
-7.86741e-10
-8.08738e-10
-8.30722e-10
-8.52684e-10
-8.74672e-10
-8.96642e-10
-9.18636e-10
-9.40597e-10
-9.62589e-10
-9.84552e-10
-1.00653e-09
-1.02852e-09
-1.05049e-09
-1.07249e-09
-1.09444e-09
-1.11644e-09
-1.13843e-09
-1.16039e-09
-1.18238e-09
-1.20437e-09
-1.22638e-09
-1.24838e-09
-1.2704e-09
-1.29245e-09
-1.31453e-09
-1.33664e-09
-1.35881e-09
-1.38107e-09
-1.40346e-09
-1.42602e-09
-1.44884e-09
-1.47204e-09
-1.49572e-09
-1.5202e-09
-1.54562e-09
-1.57255e-09
-1.60153e-09
-1.63335e-09
-1.66919e-09
-1.71045e-09
-1.75912e-09
-1.81769e-09
-1.88916e-09
-1.97602e-09
-2.07741e-09
-2.20024e-09
-2.4273e-09
1.45333e-10
-2.9873e-11
-4.03024e-11
-5.97065e-11
-8.23238e-11
-1.0484e-10
-1.2714e-10
-1.49291e-10
-1.71373e-10
-1.93399e-10
-2.15382e-10
-2.37378e-10
-2.59348e-10
-2.81291e-10
-3.03281e-10
-3.25247e-10
-3.47216e-10
-3.69183e-10
-3.91152e-10
-4.1313e-10
-4.35119e-10
-4.5709e-10
-4.79066e-10
-5.0105e-10
-5.23021e-10
-5.45003e-10
-5.66967e-10
-5.88954e-10
-6.10928e-10
-6.32899e-10
-6.54876e-10
-6.76861e-10
-6.98838e-10
-7.20833e-10
-7.42785e-10
-7.64764e-10
-7.86763e-10
-8.08734e-10
-8.30703e-10
-8.52696e-10
-8.74667e-10
-8.9664e-10
-9.18621e-10
-9.40596e-10
-9.62569e-10
-9.84554e-10
-1.00653e-09
-1.0285e-09
-1.05049e-09
-1.07245e-09
-1.09445e-09
-1.11641e-09
-1.13839e-09
-1.16039e-09
-1.18237e-09
-1.20437e-09
-1.22636e-09
-1.24836e-09
-1.27039e-09
-1.29242e-09
-1.31449e-09
-1.3366e-09
-1.35876e-09
-1.38102e-09
-1.4034e-09
-1.42594e-09
-1.44874e-09
-1.47189e-09
-1.49555e-09
-1.51986e-09
-1.54532e-09
-1.57212e-09
-1.60097e-09
-1.63262e-09
-1.66815e-09
-1.70911e-09
-1.75742e-09
-1.81545e-09
-1.8863e-09
-1.96954e-09
-2.06835e-09
-2.17835e-09
-1.30251e-11
-4.01425e-11
-5.94522e-11
-8.2227e-11
-1.04811e-10
-1.27121e-10
-1.49284e-10
-1.71369e-10
-1.93396e-10
-2.15396e-10
-2.3737e-10
-2.59339e-10
-2.81326e-10
-3.03279e-10
-3.25256e-10
-3.4723e-10
-3.69202e-10
-3.91182e-10
-4.13156e-10
-4.35125e-10
-4.57098e-10
-4.79078e-10
-5.01047e-10
-5.23031e-10
-5.45002e-10
-5.66993e-10
-5.88962e-10
-6.10937e-10
-6.32921e-10
-6.54902e-10
-6.7687e-10
-6.98849e-10
-7.20816e-10
-7.42813e-10
-7.6479e-10
-7.86752e-10
-8.08736e-10
-8.30726e-10
-8.52694e-10
-8.74674e-10
-8.96656e-10
-9.1863e-10
-9.40604e-10
-9.62589e-10
-9.84554e-10
-1.00653e-09
-1.02852e-09
-1.05049e-09
-1.07247e-09
-1.09444e-09
-1.11644e-09
-1.13842e-09
-1.16039e-09
-1.18237e-09
-1.20436e-09
-1.22636e-09
-1.24837e-09
-1.27038e-09
-1.29242e-09
-1.31448e-09
-1.33659e-09
-1.35876e-09
-1.381e-09
-1.40335e-09
-1.42587e-09
-1.44864e-09
-1.47177e-09
-1.49537e-09
-1.51972e-09
-1.54499e-09
-1.57169e-09
-1.60037e-09
-1.63182e-09
-1.66711e-09
-1.7077e-09
-1.75555e-09
-1.81302e-09
-1.88341e-09
-1.96539e-09
-2.08075e-09
6.44704e-14
-3.93905e-11
-5.90878e-11
-8.20536e-11
-1.04705e-10
-1.27053e-10
-1.49244e-10
-1.71338e-10
-1.93373e-10
-2.15372e-10
-2.37365e-10
-2.5934e-10
-2.81288e-10
-3.03274e-10
-3.25252e-10
-3.47211e-10
-3.69192e-10
-3.91159e-10
-4.13138e-10
-4.35113e-10
-4.57094e-10
-4.79061e-10
-5.01053e-10
-5.23023e-10
-5.45001e-10
-5.66973e-10
-5.88953e-10
-6.10938e-10
-6.32904e-10
-6.54871e-10
-6.7687e-10
-6.98837e-10
-7.20823e-10
-7.42794e-10
-7.6477e-10
-7.86754e-10
-8.08737e-10
-8.30705e-10
-8.52693e-10
-8.74667e-10
-8.9664e-10
-9.18623e-10
-9.40593e-10
-9.62566e-10
-9.8455e-10
-1.00653e-09
-1.0285e-09
-1.05048e-09
-1.07246e-09
-1.09444e-09
-1.11641e-09
-1.13839e-09
-1.16038e-09
-1.18236e-09
-1.20436e-09
-1.22634e-09
-1.24834e-09
-1.27036e-09
-1.29239e-09
-1.31445e-09
-1.33654e-09
-1.35869e-09
-1.38092e-09
-1.40326e-09
-1.42576e-09
-1.44851e-09
-1.47158e-09
-1.49515e-09
-1.51937e-09
-1.54457e-09
-1.57112e-09
-1.59961e-09
-1.63084e-09
-1.66575e-09
-1.7059e-09
-1.75296e-09
-1.80987e-09
-1.87941e-09
-1.95934e-09
-2.08874e-09
-1.56777e-11
-3.1628e-11
-5.70017e-11
-8.12166e-11
-1.04292e-10
-1.26834e-10
-1.49114e-10
-1.71245e-10
-1.9332e-10
-2.15343e-10
-2.3734e-10
-2.59325e-10
-2.81298e-10
-3.0328e-10
-3.25245e-10
-3.47216e-10
-3.69194e-10
-3.91169e-10
-4.13141e-10
-4.35115e-10
-4.571e-10
-4.79074e-10
-5.01038e-10
-5.23027e-10
-5.45001e-10
-5.66986e-10
-5.88961e-10
-6.10934e-10
-6.32904e-10
-6.54894e-10
-6.76868e-10
-6.98845e-10
-7.20815e-10
-7.42805e-10
-7.64783e-10
-7.86756e-10
-8.08731e-10
-8.30707e-10
-8.5269e-10
-8.74671e-10
-8.96643e-10
-9.18621e-10
-9.40603e-10
-9.62575e-10
-9.84565e-10
-1.00653e-09
-1.02852e-09
-1.0505e-09
-1.07249e-09
-1.09447e-09
-1.11645e-09
-1.13844e-09
-1.16043e-09
-1.18242e-09
-1.20443e-09
-1.22644e-09
-1.24847e-09
-1.2705e-09
-1.29256e-09
-1.31466e-09
-1.33681e-09
-1.359e-09
-1.38128e-09
-1.40369e-09
-1.42627e-09
-1.44907e-09
-1.4722e-09
-1.4958e-09
-1.52005e-09
-1.54518e-09
-1.57161e-09
-1.59979e-09
-1.63035e-09
-1.66407e-09
-1.70316e-09
-1.74863e-09
-1.80351e-09
-1.87137e-09
-1.9556e-09
-2.05305e-09
1.45427e-10
-2.31467e-11
-3.33312e-11
-5.76231e-11
-8.14827e-11
-1.04441e-10
-1.26922e-10
-1.49174e-10
-1.71287e-10
-1.93344e-10
-2.15366e-10
-2.37349e-10
-2.59329e-10
-2.81315e-10
-3.03274e-10
-3.25257e-10
-3.47236e-10
-3.69198e-10
-3.9117e-10
-4.13152e-10
-4.35126e-10
-4.57093e-10
-4.79076e-10
-5.01063e-10
-5.23035e-10
-5.45013e-10
-5.66985e-10
-5.88962e-10
-6.10944e-10
-6.32934e-10
-6.54894e-10
-6.76873e-10
-6.98855e-10
-7.20835e-10
-7.42807e-10
-7.64774e-10
-7.86758e-10
-8.0875e-10
-8.30718e-10
-8.52691e-10
-8.74678e-10
-8.96654e-10
-9.18627e-10
-9.40603e-10
-9.62582e-10
-9.84571e-10
-1.00655e-09
-1.02852e-09
-1.0505e-09
-1.07248e-09
-1.09449e-09
-1.11646e-09
-1.13845e-09
-1.16043e-09
-1.18244e-09
-1.20444e-09
-1.22644e-09
-1.24847e-09
-1.27052e-09
-1.29258e-09
-1.31467e-09
-1.33681e-09
-1.35901e-09
-1.3813e-09
-1.40372e-09
-1.42631e-09
-1.44914e-09
-1.4723e-09
-1.49596e-09
-1.52028e-09
-1.54554e-09
-1.57209e-09
-1.60047e-09
-1.63148e-09
-1.66585e-09
-1.70534e-09
-1.7515e-09
-1.80707e-09
-1.87558e-09
-1.96049e-09
-2.05206e-09
-2.14042e-09
1.31699e-10
-1.17437e-11
-3.40215e-11
-5.80523e-11
-8.16642e-11
-1.0452e-10
-1.26965e-10
-1.49179e-10
-1.71296e-10
-1.93351e-10
-2.15357e-10
-2.37365e-10
-2.59333e-10
-2.81294e-10
-3.03292e-10
-3.25248e-10
-3.47208e-10
-3.69196e-10
-3.91172e-10
-4.1314e-10
-4.3512e-10
-4.57105e-10
-4.79072e-10
-5.01038e-10
-5.23027e-10
-5.44999e-10
-5.66988e-10
-5.88961e-10
-6.10932e-10
-6.32899e-10
-6.54897e-10
-6.76874e-10
-6.98834e-10
-7.2082e-10
-7.42801e-10
-7.64793e-10
-7.86766e-10
-8.08712e-10
-8.30712e-10
-8.52697e-10
-8.74668e-10
-8.96635e-10
-9.18628e-10
-9.40607e-10
-9.62581e-10
-9.84557e-10
-1.00653e-09
-1.02852e-09
-1.0505e-09
-1.07249e-09
-1.09445e-09
-1.11646e-09
-1.13843e-09
-1.16043e-09
-1.18242e-09
-1.20442e-09
-1.22645e-09
-1.24846e-09
-1.27049e-09
-1.29256e-09
-1.31465e-09
-1.33681e-09
-1.35901e-09
-1.3813e-09
-1.40372e-09
-1.42633e-09
-1.44916e-09
-1.47237e-09
-1.49605e-09
-1.52042e-09
-1.54575e-09
-1.57247e-09
-1.60103e-09
-1.63206e-09
-1.66706e-09
-1.70709e-09
-1.75394e-09
-1.81031e-09
-1.8796e-09
-1.9654e-09
-2.07011e-09
-2.1496e-09
-2.36436e-09
1.50384e-10
-1.34381e-11
-3.49739e-11
-5.84838e-11
-8.18449e-11
-1.04603e-10
-1.27018e-10
-1.49226e-10
-1.71318e-10
-1.93364e-10
-2.15374e-10
-2.37368e-10
-2.59339e-10
-2.81303e-10
-3.03273e-10
-3.25265e-10
-3.4724e-10
-3.69195e-10
-3.91175e-10
-4.13157e-10
-4.35126e-10
-4.57076e-10
-4.79071e-10
-5.01075e-10
-5.23034e-10
-5.45008e-10
-5.66984e-10
-5.88952e-10
-6.1095e-10
-6.32935e-10
-6.54888e-10
-6.76876e-10
-6.98854e-10
-7.20838e-10
-7.42804e-10
-7.64774e-10
-7.86747e-10
-8.08762e-10
-8.30723e-10
-8.52676e-10
-8.74678e-10
-8.96657e-10
-9.1862e-10
-9.40606e-10
-9.62576e-10
-9.84572e-10
-1.00654e-09
-1.02853e-09
-1.0505e-09
-1.07248e-09
-1.09448e-09
-1.11645e-09
-1.13844e-09
-1.16042e-09
-1.18243e-09
-1.20442e-09
-1.22644e-09
-1.24846e-09
-1.27052e-09
-1.29258e-09
-1.31467e-09
-1.33679e-09
-1.359e-09
-1.38131e-09
-1.40373e-09
-1.42636e-09
-1.44921e-09
-1.47242e-09
-1.49616e-09
-1.52058e-09
-1.54603e-09
-1.5728e-09
-1.60155e-09
-1.63296e-09
-1.66827e-09
-1.70871e-09
-1.75618e-09
-1.81326e-09
-1.88325e-09
-1.96951e-09
-2.07368e-09
-2.10408e-09
-2.38818e-09
1.07756e-10
-9.25873e-12
-3.53245e-11
-5.8861e-11
-8.20307e-11
-1.04696e-10
-1.27069e-10
-1.4927e-10
-1.71339e-10
-1.93391e-10
-2.15392e-10
-2.37379e-10
-2.5934e-10
-2.8132e-10
-3.03294e-10
-3.25253e-10
-3.47209e-10
-3.69196e-10
-3.91179e-10
-4.13146e-10
-4.3512e-10
-4.5712e-10
-4.79074e-10
-5.0104e-10
-5.23041e-10
-5.45004e-10
-5.66988e-10
-5.88961e-10
-6.10935e-10
-6.3291e-10
-6.54901e-10
-6.76871e-10
-6.98853e-10
-7.2082e-10
-7.42801e-10
-7.6479e-10
-7.86777e-10
-8.08724e-10
-8.30718e-10
-8.52704e-10
-8.74675e-10
-8.96638e-10
-9.18637e-10
-9.40607e-10
-9.6258e-10
-9.84567e-10
-1.00654e-09
-1.02851e-09
-1.05051e-09
-1.07249e-09
-1.09446e-09
-1.11646e-09
-1.13843e-09
-1.16043e-09
-1.18242e-09
-1.20444e-09
-1.22643e-09
-1.24845e-09
-1.27049e-09
-1.29255e-09
-1.31464e-09
-1.33681e-09
-1.35901e-09
-1.3813e-09
-1.40376e-09
-1.42635e-09
-1.44922e-09
-1.47247e-09
-1.49622e-09
-1.52071e-09
-1.54617e-09
-1.57311e-09
-1.602e-09
-1.63362e-09
-1.66904e-09
-1.70988e-09
-1.7579e-09
-1.81574e-09
-1.88649e-09
-1.97402e-09
-2.08257e-09
-2.15169e-09
-2.38731e-09
8.90836e-11
-1.24573e-11
-3.68207e-11
-5.93745e-11
-8.22605e-11
-1.04827e-10
-1.27181e-10
-1.49314e-10
-1.71407e-10
-1.93416e-10
-2.15413e-10
-2.37416e-10
-2.59368e-10
-2.81307e-10
-3.03296e-10
-3.2526e-10
-3.47254e-10
-3.69216e-10
-3.91182e-10
-4.13156e-10
-4.35133e-10
-4.57073e-10
-4.79104e-10
-5.0109e-10
-5.23025e-10
-5.4501e-10
-5.66997e-10
-5.88956e-10
-6.10965e-10
-6.32932e-10
-6.54902e-10
-6.76876e-10
-6.98872e-10
-7.20844e-10
-7.42808e-10
-7.64775e-10
-7.86775e-10
-8.0876e-10
-8.30732e-10
-8.52689e-10
-8.74702e-10
-8.96666e-10
-9.1862e-10
-9.40626e-10
-9.62591e-10
-9.84578e-10
-1.00656e-09
-1.02854e-09
-1.05049e-09
-1.0725e-09
-1.09447e-09
-1.11645e-09
-1.13844e-09
-1.16043e-09
-1.18243e-09
-1.20441e-09
-1.22645e-09
-1.24847e-09
-1.27051e-09
-1.29257e-09
-1.31466e-09
-1.33679e-09
-1.35901e-09
-1.3813e-09
-1.40373e-09
-1.42638e-09
-1.44924e-09
-1.47252e-09
-1.49628e-09
-1.5208e-09
-1.54636e-09
-1.57333e-09
-1.60239e-09
-1.63424e-09
-1.66999e-09
-1.71114e-09
-1.75963e-09
-1.81795e-09
-1.88913e-09
-1.97652e-09
-2.08648e-09
-2.20332e-09
-2.38691e-09
8.03621e-11
-1.59977e-11
-3.78913e-11
-5.96866e-11
-8.24162e-11
-1.04904e-10
-1.27217e-10
-1.4934e-10
-1.71412e-10
-1.93432e-10
-2.15426e-10
-2.37385e-10
-2.5936e-10
-2.81337e-10
-3.03301e-10
-3.25263e-10
-3.47216e-10
-3.69196e-10
-3.91182e-10
-4.13148e-10
-4.35115e-10
-4.57115e-10
-4.79056e-10
-5.01038e-10
-5.23054e-10
-5.45005e-10
-5.66982e-10
-5.88968e-10
-6.10927e-10
-6.32921e-10
-6.54896e-10
-6.76878e-10
-6.98841e-10
-7.20821e-10
-7.42806e-10
-7.64787e-10
-7.86766e-10
-8.08745e-10
-8.30727e-10
-8.52688e-10
-8.74677e-10
-8.96657e-10
-9.18635e-10
-9.40616e-10
-9.62562e-10
-9.84567e-10
-1.00654e-09
-1.02852e-09
-1.05052e-09
-1.07248e-09
-1.09446e-09
-1.11646e-09
-1.13844e-09
-1.16043e-09
-1.1824e-09
-1.20443e-09
-1.22641e-09
-1.24843e-09
-1.27048e-09
-1.29255e-09
-1.31464e-09
-1.33678e-09
-1.35899e-09
-1.38129e-09
-1.40373e-09
-1.42634e-09
-1.44925e-09
-1.47249e-09
-1.4963e-09
-1.52085e-09
-1.54645e-09
-1.57351e-09
-1.60266e-09
-1.63464e-09
-1.67062e-09
-1.71204e-09
-1.76085e-09
-1.81967e-09
-1.89109e-09
-1.97815e-09
-2.08678e-09
-2.2223e-09
-2.38853e-09
5.22065e-11
-1.44752e-11
-3.72571e-11
-5.98227e-11
-8.24979e-11
-1.04971e-10
-1.27247e-10
-1.49369e-10
-1.71429e-10
-1.93447e-10
-2.15435e-10
-2.37412e-10
-2.59386e-10
-2.81331e-10
-3.03289e-10
-3.25275e-10
-3.47246e-10
-3.69225e-10
-3.91183e-10
-4.13152e-10
-4.35128e-10
-4.57103e-10
-4.79107e-10
-5.01074e-10
-5.23016e-10
-5.45013e-10
-5.66995e-10
-5.88959e-10
-6.10968e-10
-6.32924e-10
-6.54911e-10
-6.76866e-10
-6.98873e-10
-7.20841e-10
-7.428e-10
-7.64786e-10
-7.86777e-10
-8.08739e-10
-8.30721e-10
-8.52704e-10
-8.74676e-10
-8.96651e-10
-9.18623e-10
-9.40617e-10
-9.62592e-10
-9.84576e-10
-1.00655e-09
-1.02853e-09
-1.05049e-09
-1.07249e-09
-1.09448e-09
-1.11646e-09
-1.13843e-09
-1.16042e-09
-1.18241e-09
-1.20442e-09
-1.22645e-09
-1.24845e-09
-1.27049e-09
-1.29254e-09
-1.31462e-09
-1.33677e-09
-1.35898e-09
-1.38128e-09
-1.40371e-09
-1.42637e-09
-1.44922e-09
-1.47254e-09
-1.49631e-09
-1.52089e-09
-1.54649e-09
-1.57364e-09
-1.60284e-09
-1.63493e-09
-1.67106e-09
-1.7127e-09
-1.76176e-09
-1.82081e-09
-1.89274e-09
-1.98106e-09
-2.09056e-09
-2.26575e-09
-2.39352e-09
4.98724e-11
-1.76613e-11
-3.81512e-11
-5.99614e-11
-8.25704e-11
-1.05007e-10
-1.27277e-10
-1.49367e-10
-1.7144e-10
-1.93449e-10
-2.15443e-10
-2.37376e-10
-2.59374e-10
-2.81335e-10
-3.03328e-10
-3.2525e-10
-3.4725e-10
-3.69188e-10
-3.91175e-10
-4.13157e-10
-4.35125e-10
-4.57095e-10
-4.79061e-10
-5.01045e-10
-5.23055e-10
-5.45012e-10
-5.66971e-10
-5.88971e-10
-6.10928e-10
-6.32925e-10
-6.54897e-10
-6.76882e-10
-6.98837e-10
-7.20828e-10
-7.4282e-10
-7.64766e-10
-7.86769e-10
-8.08737e-10
-8.30718e-10
-8.52696e-10
-8.74673e-10
-8.96646e-10
-9.18626e-10
-9.40616e-10
-9.62582e-10
-9.84567e-10
-1.00653e-09
-1.02851e-09
-1.05052e-09
-1.07248e-09
-1.09445e-09
-1.11644e-09
-1.13845e-09
-1.16043e-09
-1.18242e-09
-1.20441e-09
-1.22639e-09
-1.24841e-09
-1.27047e-09
-1.29253e-09
-1.31464e-09
-1.33676e-09
-1.35896e-09
-1.38126e-09
-1.40369e-09
-1.42631e-09
-1.44922e-09
-1.47246e-09
-1.4963e-09
-1.52085e-09
-1.54652e-09
-1.57366e-09
-1.60293e-09
-1.6351e-09
-1.67131e-09
-1.71308e-09
-1.76234e-09
-1.82157e-09
-1.89373e-09
-1.98161e-09
-2.08998e-09
-2.2666e-09
-2.3969e-09
4.89205e-11
-1.5568e-11
-3.74098e-11
-5.99598e-11
-8.26165e-11
-1.05033e-10
-1.27276e-10
-1.49415e-10
-1.71436e-10
-1.93461e-10
-2.15416e-10
-2.37423e-10
-2.59389e-10
-2.81332e-10
-3.03275e-10
-3.25279e-10
-3.47238e-10
-3.69228e-10
-3.91172e-10
-4.13148e-10
-4.35124e-10
-4.57129e-10
-4.79097e-10
-5.01055e-10
-5.2302e-10
-5.44994e-10
-5.67009e-10
-5.88962e-10
-6.10959e-10
-6.32919e-10
-6.549e-10
-6.76867e-10
-6.98875e-10
-7.20841e-10
-7.42794e-10
-7.64777e-10
-7.86769e-10
-8.08734e-10
-8.30715e-10
-8.5269e-10
-8.74671e-10
-8.96644e-10
-9.18626e-10
-9.40608e-10
-9.62571e-10
-9.84564e-10
-1.00654e-09
-1.02854e-09
-1.05048e-09
-1.07248e-09
-1.09448e-09
-1.11645e-09
-1.13842e-09
-1.16041e-09
-1.18239e-09
-1.20442e-09
-1.22644e-09
-1.24843e-09
-1.27047e-09
-1.29251e-09
-1.31458e-09
-1.33675e-09
-1.35894e-09
-1.38124e-09
-1.40366e-09
-1.42631e-09
-1.44916e-09
-1.47247e-09
-1.49624e-09
-1.52083e-09
-1.54645e-09
-1.57364e-09
-1.60291e-09
-1.63512e-09
-1.67138e-09
-1.71322e-09
-1.76255e-09
-1.82191e-09
-1.89425e-09
-1.98304e-09
-2.09245e-09
-2.26835e-09
-2.39913e-09
4.80189e-11
-1.6816e-11
-3.78424e-11
-6.00197e-11
-8.26224e-11
-1.05054e-10
-1.27296e-10
-1.49371e-10
-1.71447e-10
-1.9346e-10
-2.1545e-10
-2.37392e-10
-2.59374e-10
-2.81338e-10
-3.03328e-10
-3.25245e-10
-3.47262e-10
-3.69185e-10
-3.91188e-10
-4.13165e-10
-4.35122e-10
-4.57079e-10
-4.79064e-10
-5.01068e-10
-5.23051e-10
-5.45028e-10
-5.66965e-10
-5.88972e-10
-6.10945e-10
-6.32929e-10
-6.54902e-10
-6.76878e-10
-6.98836e-10
-7.20821e-10
-7.42822e-10
-7.6477e-10
-7.86778e-10
-8.08727e-10
-8.3071e-10
-8.52688e-10
-8.74671e-10
-8.96635e-10
-9.18622e-10
-9.40607e-10
-9.62583e-10
-9.84561e-10
-1.00653e-09
-1.02851e-09
-1.05053e-09
-1.07249e-09
-1.09444e-09
-1.11644e-09
-1.13845e-09
-1.16043e-09
-1.18242e-09
-1.2044e-09
-1.22637e-09
-1.2484e-09
-1.27045e-09
-1.29251e-09
-1.31461e-09
-1.33671e-09
-1.35892e-09
-1.38121e-09
-1.40363e-09
-1.42625e-09
-1.44914e-09
-1.47238e-09
-1.4962e-09
-1.52074e-09
-1.54637e-09
-1.57353e-09
-1.60282e-09
-1.63497e-09
-1.67126e-09
-1.7131e-09
-1.76247e-09
-1.82179e-09
-1.89415e-09
-1.98265e-09
-2.09168e-09
-2.26824e-09
-2.40013e-09
4.79913e-11
-1.68145e-11
-3.78422e-11
-6.00056e-11
-8.26287e-11
-1.05043e-10
-1.27293e-10
-1.49409e-10
-1.71442e-10
-1.93458e-10
-2.15424e-10
-2.3741e-10
-2.59395e-10
-2.81329e-10
-3.03273e-10
-3.25263e-10
-3.47243e-10
-3.69221e-10
-3.9115e-10
-4.13139e-10
-4.35133e-10
-4.57138e-10
-4.79095e-10
-5.01044e-10
-5.23027e-10
-5.4499e-10
-5.67003e-10
-5.88966e-10
-6.10938e-10
-6.32914e-10
-6.54885e-10
-6.76876e-10
-6.98866e-10
-7.20821e-10
-7.42804e-10
-7.64791e-10
-7.86746e-10
-8.08735e-10
-8.30707e-10
-8.52694e-10
-8.74661e-10
-8.9665e-10
-9.18619e-10
-9.40609e-10
-9.62578e-10
-9.84563e-10
-1.00654e-09
-1.02853e-09
-1.05048e-09
-1.07246e-09
-1.09448e-09
-1.11645e-09
-1.13842e-09
-1.1604e-09
-1.18237e-09
-1.2044e-09
-1.22642e-09
-1.24841e-09
-1.27044e-09
-1.29249e-09
-1.31455e-09
-1.33672e-09
-1.35889e-09
-1.38118e-09
-1.4036e-09
-1.42621e-09
-1.44906e-09
-1.47233e-09
-1.49608e-09
-1.52064e-09
-1.54624e-09
-1.57335e-09
-1.60259e-09
-1.63473e-09
-1.67095e-09
-1.71271e-09
-1.76196e-09
-1.82124e-09
-1.89351e-09
-1.98182e-09
-2.09083e-09
-2.26735e-09
-2.3992e-09
4.89137e-11
-1.57263e-11
-3.74474e-11
-5.99706e-11
-8.26021e-11
-1.05044e-10
-1.27271e-10
-1.49395e-10
-1.71421e-10
-1.93454e-10
-2.15442e-10
-2.37403e-10
-2.59373e-10
-2.81353e-10
-3.03306e-10
-3.25252e-10
-3.47262e-10
-3.69199e-10
-3.91182e-10
-4.13168e-10
-4.35118e-10
-4.57083e-10
-4.79064e-10
-5.01068e-10
-5.23048e-10
-5.45028e-10
-5.66975e-10
-5.88966e-10
-6.10936e-10
-6.32932e-10
-6.54918e-10
-6.76878e-10
-6.98843e-10
-7.20819e-10
-7.42803e-10
-7.64783e-10
-7.8679e-10
-8.08733e-10
-8.30706e-10
-8.52682e-10
-8.7467e-10
-8.96649e-10
-9.18622e-10
-9.40606e-10
-9.62578e-10
-9.84564e-10
-1.00653e-09
-1.02851e-09
-1.05052e-09
-1.0725e-09
-1.09445e-09
-1.11644e-09
-1.13845e-09
-1.16041e-09
-1.18242e-09
-1.20439e-09
-1.22636e-09
-1.24841e-09
-1.27043e-09
-1.29248e-09
-1.31458e-09
-1.33667e-09
-1.35887e-09
-1.38113e-09
-1.40355e-09
-1.42614e-09
-1.44901e-09
-1.47222e-09
-1.49597e-09
-1.52048e-09
-1.54605e-09
-1.57312e-09
-1.60228e-09
-1.63431e-09
-1.67044e-09
-1.71205e-09
-1.76117e-09
-1.82024e-09
-1.89231e-09
-1.98078e-09
-2.09021e-09
-2.26578e-09
-2.39733e-09
4.98382e-11
-1.75696e-11
-3.81426e-11
-5.99552e-11
-8.25608e-11
-1.05002e-10
-1.27264e-10
-1.49379e-10
-1.71429e-10
-1.93443e-10
-2.15441e-10
-2.37389e-10
-2.59379e-10
-2.81317e-10
-3.03282e-10
-3.25253e-10
-3.47238e-10
-3.69211e-10
-3.91153e-10
-4.13136e-10
-4.35128e-10
-4.57125e-10
-4.79089e-10
-5.01048e-10
-5.23019e-10
-5.44995e-10
-5.66993e-10
-5.88971e-10
-6.10949e-10
-6.32911e-10
-6.54864e-10
-6.7688e-10
-6.98849e-10
-7.20851e-10
-7.428e-10
-7.64786e-10
-7.86759e-10
-8.08737e-10
-8.30705e-10
-8.52702e-10
-8.74668e-10