/*--------------------------------*- C++ -*----------------------------------*\
| =========                 |                                                 |
| \\      /  F ield         | OpenFOAM: The Open Source CFD Toolbox           |
|  \\    /   O peration     | Version:  v1906                                 |
|   \\  /    A nd           | Web:      www.OpenFOAM.com                      |
|    \\/     M anipulation  |                                                 |
\*---------------------------------------------------------------------------*/
FoamFile
{
    version     2.0;
    format      ascii;
    class       volScalarField;
    location    "24.5";
    object      p;
}
// * * * * * * * * * * * * * * * * * * * * * * * * * * * * * * * * * * * * * //

dimensions      [0 2 -2 0 0 0 0];


internalField   nonuniform List<scalar> 
243374
(
-1.03862e-16
-3.97372e-11
-5.93089e-11
-8.22905e-11
-1.04961e-10
-1.27308e-10
-1.49532e-10
-1.71627e-10
-1.93693e-10
-2.15713e-10
-2.37709e-10
-2.59717e-10
-2.81723e-10
-3.03702e-10
-3.25702e-10
-3.47676e-10
-3.69696e-10
-3.91697e-10
-4.13696e-10
-4.35704e-10
-4.57726e-10
-4.79706e-10
-5.01698e-10
-5.23722e-10
-5.45719e-10
-5.67721e-10
-5.89725e-10
-6.11732e-10
-6.33729e-10
-6.5574e-10
-6.77745e-10
-6.99745e-10
-7.21748e-10
-7.43757e-10
-7.65772e-10
-7.87767e-10
-8.09756e-10
-8.3177e-10
-8.53788e-10
-8.75777e-10
-8.97777e-10
-9.19803e-10
-9.41792e-10
-9.63804e-10
-9.85804e-10
-1.00782e-09
-1.02983e-09
-1.05183e-09
-1.07385e-09
-1.09587e-09
-1.11789e-09
-1.13991e-09
-1.16193e-09
-1.18396e-09
-1.20601e-09
-1.22806e-09
-1.25013e-09
-1.27222e-09
-1.29434e-09
-1.3165e-09
-1.33871e-09
-1.36099e-09
-1.38335e-09
-1.40584e-09
-1.4285e-09
-1.45139e-09
-1.47461e-09
-1.49826e-09
-1.52251e-09
-1.54761e-09
-1.57388e-09
-1.6017e-09
-1.63169e-09
-1.66465e-09
-1.70165e-09
-1.74411e-09
-1.79381e-09
-1.85278e-09
-1.91814e-09
-2.02561e-09
-1.38756e-11
-4.03442e-11
-5.96803e-11
-8.24657e-11
-1.05055e-10
-1.27376e-10
-1.49577e-10
-1.71673e-10
-1.93706e-10
-2.15731e-10
-2.37743e-10
-2.59733e-10
-2.81719e-10
-3.03713e-10
-3.25705e-10
-3.47719e-10
-3.69709e-10
-3.91702e-10
-4.13724e-10
-4.35708e-10
-4.5771e-10
-4.79743e-10
-5.01727e-10
-5.23714e-10
-5.45737e-10
-5.6774e-10
-5.89739e-10
-6.11741e-10
-6.33742e-10
-6.55742e-10
-6.77755e-10
-6.99759e-10
-7.21764e-10
-7.43767e-10
-7.65775e-10
-7.87773e-10
-8.09781e-10
-8.3178e-10
-8.5379e-10
-8.75795e-10
-8.97797e-10
-9.19804e-10
-9.41808e-10
-9.63818e-10
-9.85809e-10
-1.00783e-09
-1.02985e-09
-1.05185e-09
-1.07386e-09
-1.09589e-09
-1.11789e-09
-1.13991e-09
-1.16193e-09
-1.18398e-09
-1.20601e-09
-1.22808e-09
-1.25014e-09
-1.27223e-09
-1.29434e-09
-1.3165e-09
-1.3387e-09
-1.36097e-09
-1.38334e-09
-1.40584e-09
-1.42848e-09
-1.45137e-09
-1.47461e-09
-1.49825e-09
-1.52254e-09
-1.54767e-09
-1.57396e-09
-1.60187e-09
-1.63197e-09
-1.6651e-09
-1.7023e-09
-1.74499e-09
-1.79496e-09
-1.85432e-09
-1.92118e-09
-2.01406e-09
-3.02514e-11
-4.04959e-11
-5.99069e-11
-8.25583e-11
-1.05096e-10
-1.27386e-10
-1.49558e-10
-1.71661e-10
-1.93719e-10
-2.15729e-10
-2.37718e-10
-2.59724e-10
-2.81717e-10
-3.03706e-10
-3.25698e-10
-3.47687e-10
-3.69692e-10
-3.91699e-10
-4.13686e-10
-4.35706e-10
-4.5772e-10
-4.79681e-10
-5.01701e-10
-5.23735e-10
-5.4572e-10
-5.6772e-10
-5.89732e-10
-6.11723e-10
-6.33731e-10
-6.55732e-10
-6.77731e-10
-6.99743e-10
-7.21758e-10
-7.43765e-10
-7.65759e-10
-7.87762e-10
-8.09762e-10
-8.31771e-10
-8.53789e-10
-8.75774e-10
-8.97792e-10
-9.19801e-10
-9.41793e-10
-9.63794e-10
-9.85815e-10
-1.00781e-09
-1.02982e-09
-1.05185e-09
-1.07384e-09
-1.09584e-09
-1.11788e-09
-1.1399e-09
-1.16193e-09
-1.18395e-09
-1.20599e-09
-1.22803e-09
-1.25012e-09
-1.27219e-09
-1.2943e-09
-1.31647e-09
-1.33867e-09
-1.36093e-09
-1.3833e-09
-1.40576e-09
-1.42843e-09
-1.45132e-09
-1.47451e-09
-1.49821e-09
-1.52247e-09
-1.5476e-09
-1.57394e-09
-1.6019e-09
-1.63203e-09
-1.66529e-09
-1.70264e-09
-1.74552e-09
-1.79573e-09
-1.85524e-09
-1.92282e-09
-1.99924e-09
1.28673e-10
-2.05319e-11
-3.79032e-11
-5.99334e-11
-8.26073e-11
-1.05131e-10
-1.27397e-10
-1.49633e-10
-1.71678e-10
-1.937e-10
-2.15731e-10
-2.37762e-10
-2.59723e-10
-2.81739e-10
-3.03703e-10
-3.25703e-10
-3.47694e-10
-3.69708e-10
-3.91689e-10
-4.13734e-10
-4.35724e-10
-4.57704e-10
-4.79744e-10
-5.01715e-10
-5.23687e-10
-5.45723e-10
-5.67726e-10
-5.89739e-10
-6.11747e-10
-6.33735e-10
-6.55758e-10
-6.77766e-10
-6.99747e-10
-7.21737e-10
-7.43752e-10
-7.6579e-10
-7.87758e-10
-8.0978e-10
-8.31771e-10
-8.53768e-10
-8.75776e-10
-8.97792e-10
-9.19793e-10
-9.41793e-10
-9.63835e-10
-9.85789e-10
-1.00783e-09
-1.02984e-09
-1.0518e-09
-1.07387e-09
-1.0959e-09
-1.11787e-09
-1.13989e-09
-1.16189e-09
-1.18396e-09
-1.20599e-09
-1.22809e-09
-1.25011e-09
-1.27221e-09
-1.29432e-09
-1.31643e-09
-1.33864e-09
-1.3609e-09
-1.38324e-09
-1.40576e-09
-1.42838e-09
-1.45125e-09
-1.47451e-09
-1.49812e-09
-1.52243e-09
-1.54757e-09
-1.57391e-09
-1.60188e-09
-1.63213e-09
-1.6654e-09
-1.70287e-09
-1.74589e-09
-1.79629e-09
-1.85612e-09
-1.927e-09
-2.00767e-09
-2.10511e-09
1.1679e-10
-2.86778e-11
-3.88949e-11
-5.99745e-11
-8.2645e-11
-1.05152e-10
-1.27415e-10
-1.49561e-10
-1.71696e-10
-1.93729e-10
-2.15731e-10
-2.37741e-10
-2.59719e-10
-2.817e-10
-3.0373e-10
-3.257e-10
-3.47729e-10
-3.69672e-10
-3.91715e-10
-4.13673e-10
-4.35676e-10
-4.5769e-10
-4.79675e-10
-5.01711e-10
-5.23755e-10
-5.45724e-10
-5.67735e-10
-5.89725e-10
-6.11717e-10
-6.33734e-10
-6.55716e-10
-6.77736e-10
-6.99739e-10
-7.21753e-10
-7.43777e-10
-7.65749e-10
-7.87767e-10
-8.09763e-10
-8.31759e-10
-8.53769e-10
-8.75778e-10
-8.97784e-10
-9.19785e-10
-9.41788e-10
-9.63793e-10
-9.85817e-10
-1.00782e-09
-1.02979e-09
-1.05187e-09
-1.07383e-09
-1.09582e-09
-1.11788e-09
-1.13992e-09
-1.16194e-09
-1.18396e-09
-1.20597e-09
-1.22799e-09
-1.25009e-09
-1.27214e-09
-1.29426e-09
-1.31647e-09
-1.33861e-09
-1.36089e-09
-1.38323e-09
-1.40568e-09
-1.4283e-09
-1.45122e-09
-1.47436e-09
-1.49806e-09
-1.52233e-09
-1.54746e-09
-1.5738e-09
-1.60181e-09
-1.63201e-09
-1.6654e-09
-1.70293e-09
-1.74603e-09
-1.79655e-09
-1.85658e-09
-1.9268e-09
-2.00213e-09
-2.11786e-09
-2.30123e-09
1.11537e-10
-1.977e-11
-3.72506e-11
-5.98921e-11
-8.26693e-11
-1.0513e-10
-1.27424e-10
-1.49655e-10
-1.71678e-10
-1.93717e-10
-2.15731e-10
-2.3774e-10
-2.59747e-10
-2.81734e-10
-3.03686e-10
-3.25728e-10
-3.47653e-10
-3.69722e-10
-3.91674e-10
-4.13713e-10
-4.35736e-10
-4.57726e-10
-4.79744e-10
-5.01713e-10
-5.2367e-10
-5.45728e-10
-5.67706e-10
-5.89725e-10
-6.1174e-10
-6.33724e-10
-6.55744e-10
-6.77752e-10
-6.99773e-10
-7.21754e-10
-7.43742e-10
-7.65759e-10
-7.87746e-10
-8.09758e-10
-8.31764e-10
-8.53769e-10
-8.75765e-10
-8.97786e-10
-9.19784e-10
-9.41793e-10
-9.63796e-10
-9.85801e-10
-1.00781e-09
-1.02984e-09
-1.05178e-09
-1.07385e-09
-1.09588e-09
-1.11788e-09
-1.13985e-09
-1.16188e-09
-1.18393e-09
-1.20598e-09
-1.22805e-09
-1.25008e-09
-1.27217e-09
-1.29428e-09
-1.31636e-09
-1.3386e-09
-1.36082e-09
-1.38316e-09
-1.40564e-09
-1.42827e-09
-1.45112e-09
-1.47432e-09
-1.49794e-09
-1.52222e-09
-1.54732e-09
-1.57365e-09
-1.60164e-09
-1.63191e-09
-1.66524e-09
-1.70277e-09
-1.74594e-09
-1.79653e-09
-1.85672e-09
-1.92868e-09
-2.0106e-09
-2.12481e-09
-2.2983e-09
1.06698e-10
-2.47515e-11
-3.79509e-11
-5.99475e-11
-8.266e-11
-1.05182e-10
-1.27423e-10
-1.49592e-10
-1.71699e-10
-1.937e-10
-2.15772e-10
-2.3774e-10
-2.59684e-10
-2.81737e-10
-3.03734e-10
-3.25679e-10
-3.4772e-10
-3.69685e-10
-3.91734e-10
-4.1371e-10
-4.35674e-10
-4.57678e-10
-4.79677e-10
-5.01711e-10
-5.23736e-10
-5.45731e-10
-5.67736e-10
-5.89724e-10
-6.11733e-10
-6.33742e-10
-6.55732e-10
-6.77733e-10
-6.99708e-10
-7.21743e-10
-7.43768e-10
-7.65769e-10
-7.87749e-10
-8.09756e-10
-8.31758e-10
-8.53753e-10
-8.75767e-10
-8.97757e-10
-9.19781e-10
-9.41764e-10
-9.63795e-10
-9.85793e-10
-1.00781e-09
-1.02979e-09
-1.05187e-09
-1.07386e-09
-1.09584e-09
-1.11784e-09
-1.13989e-09
-1.16192e-09
-1.18395e-09
-1.20595e-09
-1.228e-09
-1.25008e-09
-1.27211e-09
-1.29421e-09
-1.3164e-09
-1.33853e-09
-1.36079e-09
-1.38312e-09
-1.40558e-09
-1.42817e-09
-1.45105e-09
-1.4742e-09
-1.49784e-09
-1.52206e-09
-1.54716e-09
-1.57345e-09
-1.60141e-09
-1.63162e-09
-1.66497e-09
-1.70251e-09
-1.74562e-09
-1.79621e-09
-1.85641e-09
-1.92784e-09
-2.0063e-09
-2.12575e-09
-2.29639e-09
1.04721e-10
-2.47241e-11
-3.7939e-11
-5.9931e-11
-8.2661e-11
-1.05136e-10
-1.27443e-10
-1.49609e-10
-1.71694e-10
-1.93751e-10
-2.15706e-10
-2.37743e-10
-2.59758e-10
-2.81689e-10
-3.03702e-10
-3.25718e-10
-3.47653e-10
-3.69691e-10
-3.91674e-10
-4.13681e-10
-4.35731e-10
-4.5773e-10
-4.79737e-10
-5.01706e-10
-5.23697e-10
-5.45692e-10
-5.67707e-10
-5.89731e-10
-6.11716e-10
-6.33713e-10
-6.55739e-10
-6.77742e-10
-6.9977e-10
-7.21762e-10
-7.43707e-10
-7.65762e-10
-7.87749e-10
-8.09758e-10
-8.31771e-10
-8.53771e-10
-8.7577e-10
-8.97782e-10
-9.19778e-10
-9.41789e-10
-9.63794e-10
-9.85788e-10
-1.00782e-09
-1.02983e-09
-1.05178e-09
-1.07382e-09
-1.09586e-09
-1.11787e-09
-1.13986e-09
-1.16188e-09
-1.18391e-09
-1.20597e-09
-1.228e-09
-1.25003e-09
-1.27213e-09
-1.29422e-09
-1.3163e-09
-1.33852e-09
-1.36074e-09
-1.38308e-09
-1.40553e-09
-1.42812e-09
-1.45095e-09
-1.47408e-09
-1.49765e-09
-1.5219e-09
-1.5469e-09
-1.57322e-09
-1.60111e-09
-1.63129e-09
-1.66456e-09
-1.70201e-09
-1.74507e-09
-1.79559e-09
-1.85572e-09
-1.927e-09
-2.00543e-09
-2.12521e-09
-2.29532e-09
1.05434e-10
-2.00884e-11
-3.73128e-11
-5.99144e-11
-8.26597e-11
-1.05171e-10
-1.27404e-10
-1.49624e-10
-1.71685e-10
-1.93678e-10
-2.15773e-10
-2.37742e-10
-2.59689e-10
-2.81761e-10
-3.03705e-10
-3.2571e-10
-3.47688e-10
-3.69712e-10
-3.91738e-10
-4.13722e-10
-4.35681e-10
-4.57692e-10
-4.79689e-10
-5.01711e-10
-5.23699e-10
-5.45728e-10
-5.67736e-10
-5.89715e-10
-6.11752e-10
-6.33752e-10
-6.55736e-10
-6.77735e-10
-6.99726e-10
-7.21718e-10
-7.43805e-10
-7.65752e-10
-7.87755e-10
-8.09757e-10
-8.31767e-10
-8.53745e-10
-8.75776e-10
-8.97776e-10
-9.19779e-10
-9.41783e-10
-9.63794e-10
-9.85807e-10
-1.0078e-09
-1.02981e-09
-1.05185e-09
-1.07387e-09
-1.09584e-09
-1.11785e-09
-1.13987e-09
-1.1619e-09
-1.18392e-09
-1.20594e-09
-1.22799e-09
-1.25005e-09
-1.27209e-09
-1.29419e-09
-1.31636e-09
-1.33848e-09
-1.36072e-09
-1.38301e-09
-1.40543e-09
-1.42803e-09
-1.45086e-09
-1.47396e-09
-1.49756e-09
-1.52168e-09
-1.54673e-09
-1.5729e-09
-1.60076e-09
-1.63084e-09
-1.664e-09
-1.70136e-09
-1.7443e-09
-1.79465e-09
-1.85462e-09
-1.92637e-09
-2.00857e-09
-2.12328e-09
-2.29478e-09
1.09078e-10
-2.84809e-11
-3.88861e-11
-5.99853e-11
-8.2644e-11
-1.05115e-10
-1.27449e-10
-1.4955e-10
-1.71692e-10
-1.93734e-10
-2.15699e-10
-2.37748e-10
-2.59762e-10
-2.81663e-10
-3.03715e-10
-3.25692e-10
-3.47688e-10
-3.69662e-10
-3.91671e-10
-4.13678e-10
-4.35717e-10
-4.57697e-10
-4.79724e-10
-5.01707e-10
-5.23712e-10
-5.45713e-10
-5.67696e-10
-5.89728e-10
-6.11702e-10
-6.33712e-10
-6.55738e-10
-6.77733e-10
-6.99741e-10
-7.21777e-10
-7.43705e-10
-7.65745e-10
-7.87778e-10
-8.09756e-10
-8.31774e-10
-8.53769e-10
-8.75775e-10
-8.97778e-10
-9.19782e-10
-9.41789e-10
-9.63796e-10
-9.85805e-10
-1.00781e-09
-1.02981e-09
-1.05181e-09
-1.0738e-09
-1.09586e-09
-1.11785e-09
-1.13982e-09
-1.16188e-09
-1.18389e-09
-1.20595e-09
-1.22796e-09
-1.25e-09
-1.27209e-09
-1.29416e-09
-1.31625e-09
-1.33843e-09
-1.36065e-09
-1.38296e-09
-1.40539e-09
-1.42795e-09
-1.45074e-09
-1.4738e-09
-1.49735e-09
-1.52146e-09
-1.54646e-09
-1.57256e-09
-1.60032e-09
-1.63032e-09
-1.66335e-09
-1.7005e-09
-1.7433e-09
-1.79345e-09
-1.85311e-09
-1.92321e-09
-1.99781e-09
-2.11782e-09
-2.29541e-09
1.21393e-10
-2.06814e-11
-3.79517e-11
-5.99179e-11
-8.26106e-11
-1.05131e-10
-1.27405e-10
-1.49578e-10
-1.71685e-10
-1.93699e-10
-2.15759e-10
-2.3773e-10
-2.59694e-10
-2.81751e-10
-3.03703e-10
-3.25718e-10
-3.47685e-10
-3.69726e-10
-3.91737e-10
-4.13727e-10
-4.35692e-10
-4.57706e-10
-4.797e-10
-5.01708e-10
-5.23714e-10
-5.45712e-10
-5.67751e-10
-5.89722e-10
-6.11751e-10
-6.33744e-10
-6.55741e-10
-6.77741e-10
-6.99769e-10
-7.21713e-10
-7.43791e-10
-7.65784e-10
-7.87738e-10
-8.09771e-10
-8.31784e-10
-8.53767e-10
-8.75789e-10
-8.97778e-10
-9.19808e-10
-9.41789e-10
-9.6382e-10
-9.85798e-10
-1.00781e-09
-1.02983e-09
-1.05181e-09
-1.07386e-09
-1.09583e-09
-1.11786e-09
-1.1399e-09
-1.16187e-09
-1.1839e-09
-1.20592e-09
-1.22798e-09
-1.25e-09
-1.27207e-09
-1.29416e-09
-1.31629e-09
-1.33842e-09
-1.36063e-09
-1.38289e-09
-1.40532e-09
-1.42785e-09
-1.45061e-09
-1.47371e-09
-1.49715e-09
-1.52129e-09
-1.54614e-09
-1.57216e-09
-1.59983e-09
-1.62971e-09
-1.66256e-09
-1.69954e-09
-1.74209e-09
-1.79197e-09
-1.85129e-09
-1.92166e-09
-2.00217e-09
-2.10564e-09
-2.29875e-09
1.43981e-10
-3.02886e-11
-4.04678e-11
-5.99159e-11
-8.25488e-11
-1.05077e-10
-1.27388e-10
-1.49556e-10
-1.71659e-10
-1.93703e-10
-2.15704e-10
-2.37735e-10
-2.59729e-10
-2.81669e-10
-3.03704e-10
-3.25691e-10
-3.47685e-10
-3.69676e-10
-3.9167e-10
-4.13678e-10
-4.357e-10
-4.57695e-10
-4.79701e-10
-5.01711e-10
-5.23707e-10
-5.4572e-10
-5.67699e-10
-5.8972e-10
-6.1172e-10
-6.33723e-10
-6.55723e-10
-6.7773e-10
-6.99728e-10
-7.21768e-10
-7.43729e-10
-7.65735e-10
-7.87774e-10
-8.09766e-10
-8.31763e-10
-8.53782e-10
-8.75783e-10
-8.97777e-10
-9.19791e-10
-9.4179e-10
-9.63789e-10
-9.85804e-10
-1.00781e-09
-1.0298e-09
-1.05182e-09
-1.07381e-09
-1.09584e-09
-1.11783e-09
-1.13982e-09
-1.16187e-09
-1.18388e-09
-1.20592e-09
-1.22793e-09
-1.24998e-09
-1.27205e-09
-1.29411e-09
-1.31621e-09
-1.33836e-09
-1.36055e-09
-1.38284e-09
-1.4052e-09
-1.42774e-09
-1.45048e-09
-1.47351e-09
-1.49695e-09
-1.52092e-09
-1.54581e-09
-1.57175e-09
-1.59927e-09
-1.62895e-09
-1.66163e-09
-1.69841e-09
-1.74067e-09
-1.79022e-09
-1.8491e-09
-1.9161e-09
-1.99197e-09
-2.09024e-09
-1.38327e-11
-4.03281e-11
-5.96715e-11
-8.24522e-11
-1.05051e-10
-1.27373e-10
-1.49551e-10
-1.71656e-10
-1.93704e-10
-2.15729e-10
-2.37723e-10
-2.59711e-10
-2.81737e-10
-3.03701e-10
-3.25706e-10
-3.47704e-10
-3.69704e-10
-3.91714e-10
-4.13719e-10
-4.35709e-10
-4.57708e-10
-4.79715e-10
-5.01706e-10
-5.23724e-10
-5.45714e-10
-5.67744e-10
-5.89731e-10
-6.1173e-10
-6.33745e-10
-6.55754e-10
-6.77742e-10
-6.99754e-10
-7.21737e-10
-7.43771e-10
-7.65777e-10
-7.87757e-10
-8.0977e-10
-8.31788e-10
-8.53781e-10
-8.75791e-10
-8.97801e-10
-9.19802e-10
-9.418e-10
-9.63816e-10
-9.85803e-10
-1.00781e-09
-1.02983e-09
-1.05182e-09
-1.07383e-09
-1.09583e-09
-1.11786e-09
-1.13989e-09
-1.16187e-09
-1.18388e-09
-1.20591e-09
-1.22795e-09
-1.24999e-09
-1.27203e-09
-1.29411e-09
-1.3162e-09
-1.33834e-09
-1.36052e-09
-1.38279e-09
-1.40518e-09
-1.42767e-09
-1.45036e-09
-1.47337e-09
-1.49674e-09
-1.52073e-09
-1.54546e-09
-1.57135e-09
-1.59872e-09
-1.62831e-09
-1.66074e-09
-1.69723e-09
-1.73915e-09
-1.78833e-09
-1.84695e-09
-1.9131e-09
-2.00526e-09
5.86702e-14
-3.97196e-11
-5.93087e-11
-8.22742e-11
-1.04942e-10
-1.27302e-10
-1.49508e-10
-1.71623e-10
-1.93678e-10
-2.157e-10
-2.37718e-10
-2.59716e-10
-2.81673e-10
-3.03692e-10
-3.25703e-10
-3.47675e-10
-3.69691e-10
-3.91683e-10
-4.13685e-10
-4.3569e-10
-4.577e-10
-4.79692e-10
-5.01717e-10
-5.23707e-10
-5.45713e-10
-5.6771e-10
-5.89716e-10
-6.11733e-10
-6.33724e-10
-6.55706e-10
-6.77743e-10
-6.9973e-10
-7.21743e-10
-7.43749e-10
-7.65746e-10
-7.87756e-10
-8.09772e-10
-8.31759e-10
-8.53779e-10
-8.7578e-10
-8.97776e-10
-9.19792e-10
-9.41782e-10
-9.63786e-10
-9.85797e-10
-1.0078e-09
-1.0298e-09
-1.05181e-09
-1.07382e-09
-1.09583e-09
-1.11783e-09
-1.13983e-09
-1.16186e-09
-1.18387e-09
-1.2059e-09
-1.22792e-09
-1.24994e-09
-1.272e-09
-1.29406e-09
-1.31617e-09
-1.33828e-09
-1.36046e-09
-1.38271e-09
-1.40506e-09
-1.42753e-09
-1.45019e-09
-1.47316e-09
-1.49653e-09
-1.52038e-09
-1.54508e-09
-1.57076e-09
-1.59805e-09
-1.6272e-09
-1.65961e-09
-1.69562e-09
-1.73723e-09
-1.78603e-09
-1.84412e-09
-1.90865e-09
-2.01551e-09
-1.53873e-11
-3.19584e-11
-5.72411e-11
-8.14573e-11
-1.0453e-10
-1.27086e-10
-1.49382e-10
-1.71524e-10
-1.93624e-10
-2.1567e-10
-2.37689e-10
-2.597e-10
-2.81699e-10
-3.03706e-10
-3.2569e-10
-3.4769e-10
-3.69697e-10
-3.91699e-10
-4.13699e-10
-4.35698e-10
-4.57714e-10
-4.7971e-10
-5.01692e-10
-5.23718e-10
-5.45718e-10
-5.67731e-10
-5.89733e-10
-6.11732e-10
-6.33725e-10
-6.55747e-10
-6.77744e-10
-6.99747e-10
-7.2174e-10
-7.43761e-10
-7.65766e-10
-7.87763e-10
-8.09765e-10
-8.31764e-10
-8.53776e-10
-8.75789e-10
-8.97782e-10
-9.19785e-10
-9.41802e-10
-9.63795e-10
-9.85823e-10
-1.00782e-09
-1.02984e-09
-1.05185e-09
-1.07386e-09
-1.09588e-09
-1.1179e-09
-1.13992e-09
-1.16195e-09
-1.18398e-09
-1.20604e-09
-1.2281e-09
-1.25019e-09
-1.27226e-09
-1.2944e-09
-1.31657e-09
-1.33881e-09
-1.36107e-09
-1.38344e-09
-1.40593e-09
-1.42859e-09
-1.45146e-09
-1.47463e-09
-1.49821e-09
-1.52236e-09
-1.54722e-09
-1.57318e-09
-1.60049e-09
-1.6298e-09
-1.66178e-09
-1.69744e-09
-1.73816e-09
-1.78591e-09
-1.84351e-09
-1.91335e-09
-1.9914e-09
1.45458e-10
-2.37031e-11
-3.3547e-11
-5.78506e-11
-8.17182e-11
-1.04682e-10
-1.27175e-10
-1.49443e-10
-1.71568e-10
-1.93649e-10
-2.15698e-10
-2.37699e-10
-2.59704e-10
-2.81719e-10
-3.03695e-10
-3.2571e-10
-3.47715e-10
-3.69701e-10
-3.917e-10
-4.13711e-10
-4.35713e-10
-4.57702e-10
-4.79713e-10
-5.0173e-10
-5.23731e-10
-5.45732e-10
-5.6773e-10
-5.89734e-10
-6.11742e-10
-6.33772e-10
-6.55746e-10
-6.7775e-10
-6.9976e-10
-7.21766e-10
-7.43767e-10
-7.65757e-10
-7.87768e-10
-8.09788e-10
-8.31779e-10
-8.53779e-10
-8.75797e-10
-8.97796e-10
-9.19797e-10
-9.41801e-10
-9.63809e-10
-9.85831e-10
-1.00784e-09
-1.02984e-09
-1.05185e-09
-1.07386e-09
-1.0959e-09
-1.1179e-09
-1.13993e-09
-1.16195e-09
-1.184e-09
-1.20604e-09
-1.2281e-09
-1.25018e-09
-1.2723e-09
-1.29442e-09
-1.31657e-09
-1.33879e-09
-1.36106e-09
-1.38343e-09
-1.40594e-09
-1.42859e-09
-1.45149e-09
-1.47467e-09
-1.49828e-09
-1.52246e-09
-1.54742e-09
-1.57344e-09
-1.60092e-09
-1.6305e-09
-1.66272e-09
-1.69871e-09
-1.73984e-09
-1.78802e-09
-1.84598e-09
-1.91611e-09
-1.98743e-09
-2.06314e-09
1.31391e-10
-1.07916e-11
-3.42199e-11
-5.82814e-11
-8.18981e-11
-1.0476e-10
-1.27217e-10
-1.49442e-10
-1.71576e-10
-1.93654e-10
-2.15679e-10
-2.37726e-10
-2.59709e-10
-2.81684e-10
-3.03725e-10
-3.25697e-10
-3.47671e-10
-3.69698e-10
-3.91705e-10
-4.13699e-10
-4.35706e-10
-4.57718e-10
-4.79708e-10
-5.01699e-10
-5.23719e-10
-5.45716e-10
-5.67734e-10
-5.8973e-10
-6.11728e-10
-6.33711e-10
-6.5575e-10
-6.77751e-10
-6.99725e-10
-7.21752e-10
-7.43751e-10
-7.65785e-10
-7.87777e-10
-8.09734e-10
-8.31773e-10
-8.53785e-10
-8.75783e-10
-8.97774e-10
-9.19799e-10
-9.41807e-10
-9.63807e-10
-9.85809e-10
-1.00782e-09
-1.02984e-09
-1.05185e-09
-1.07388e-09
-1.09586e-09
-1.1179e-09
-1.13992e-09
-1.16195e-09
-1.18398e-09
-1.20602e-09
-1.2281e-09
-1.25017e-09
-1.27224e-09
-1.29438e-09
-1.31653e-09
-1.33878e-09
-1.36105e-09
-1.38341e-09
-1.4059e-09
-1.42858e-09
-1.45144e-09
-1.47466e-09
-1.49828e-09
-1.52247e-09
-1.54747e-09
-1.5736e-09
-1.60122e-09
-1.63088e-09
-1.66337e-09
-1.69973e-09
-1.74129e-09
-1.78998e-09
-1.84836e-09
-1.91895e-09
-2.00429e-09
-2.0681e-09
-2.2686e-09
1.50745e-10
-1.35839e-11
-3.51674e-11
-5.87116e-11
-8.20761e-11
-1.04839e-10
-1.27267e-10
-1.49492e-10
-1.71597e-10
-1.93667e-10
-2.15698e-10
-2.37718e-10
-2.59711e-10
-2.81696e-10
-3.03692e-10
-3.25719e-10
-3.47723e-10
-3.69696e-10
-3.91708e-10
-4.13716e-10
-4.35712e-10
-4.57672e-10
-4.79703e-10
-5.0175e-10
-5.23732e-10
-5.45726e-10
-5.67729e-10
-5.89718e-10
-6.11747e-10
-6.33774e-10
-6.55731e-10
-6.77754e-10
-6.99759e-10
-7.21771e-10
-7.4376e-10
-7.65747e-10
-7.87746e-10
-8.09806e-10
-8.31787e-10
-8.53751e-10
-8.75793e-10
-8.97798e-10
-9.19785e-10
-9.41806e-10
-9.6379e-10
-9.85831e-10
-1.00783e-09
-1.02984e-09
-1.05184e-09
-1.07384e-09
-1.0959e-09
-1.1179e-09
-1.13993e-09
-1.16194e-09
-1.18399e-09
-1.20602e-09
-1.22809e-09
-1.25016e-09
-1.27228e-09
-1.2944e-09
-1.31655e-09
-1.33872e-09
-1.36101e-09
-1.38341e-09
-1.40588e-09
-1.42857e-09
-1.45145e-09
-1.47463e-09
-1.49829e-09
-1.52251e-09
-1.54759e-09
-1.57372e-09
-1.60141e-09
-1.6313e-09
-1.664e-09
-1.70063e-09
-1.7426e-09
-1.79173e-09
-1.85046e-09
-1.92115e-09
-2.00444e-09
-2.02173e-09
-2.28418e-09
1.11319e-10
-9.32803e-12
-3.56215e-11
-5.90891e-11
-8.22608e-11
-1.04932e-10
-1.27318e-10
-1.49541e-10
-1.71619e-10
-1.93699e-10
-2.15723e-10
-2.37738e-10
-2.59713e-10
-2.81727e-10
-3.03725e-10
-3.25704e-10
-3.47668e-10
-3.697e-10
-3.91715e-10
-4.13707e-10
-4.35704e-10
-4.57742e-10
-4.79711e-10
-5.01701e-10
-5.23738e-10
-5.45723e-10
-5.67735e-10
-5.89728e-10
-6.11742e-10
-6.33731e-10
-6.55756e-10
-6.77746e-10
-6.9976e-10
-7.21747e-10
-7.43754e-10
-7.65777e-10
-7.87795e-10
-8.09753e-10
-8.31783e-10
-8.53797e-10
-8.75793e-10
-8.97773e-10
-9.19811e-10
-9.41807e-10
-9.63806e-10
-9.85827e-10
-1.00783e-09
-1.02982e-09
-1.05185e-09
-1.07387e-09
-1.09587e-09
-1.11792e-09
-1.1399e-09
-1.16195e-09
-1.18397e-09
-1.20604e-09
-1.22808e-09
-1.25014e-09
-1.27223e-09
-1.29436e-09
-1.3165e-09
-1.33874e-09
-1.36101e-09
-1.38336e-09
-1.40589e-09
-1.42852e-09
-1.45139e-09
-1.47464e-09
-1.49826e-09
-1.52253e-09
-1.54758e-09
-1.57384e-09
-1.60162e-09
-1.63153e-09
-1.66444e-09
-1.70135e-09
-1.74362e-09
-1.7932e-09
-1.85231e-09
-1.92365e-09
-2.0114e-09
-2.06384e-09
-2.26853e-09
9.00289e-11
-1.30765e-11
-3.71815e-11
-5.96048e-11
-8.2492e-11
-1.05067e-10
-1.27442e-10
-1.49584e-10
-1.71702e-10
-1.93727e-10
-2.15747e-10
-2.37789e-10
-2.59756e-10
-2.81699e-10
-3.03733e-10
-3.2571e-10
-3.47748e-10
-3.69725e-10
-3.9172e-10
-4.13715e-10
-4.3573e-10
-4.57666e-10
-4.79753e-10
-5.01775e-10
-5.23714e-10
-5.45729e-10
-5.6775e-10
-5.89725e-10
-6.11771e-10
-6.33761e-10
-6.5576e-10
-6.77752e-10
-6.99781e-10
-7.21783e-10
-7.43765e-10
-7.65743e-10
-7.87795e-10
-8.098e-10
-8.31806e-10
-8.53776e-10
-8.75832e-10
-8.97818e-10
-9.19791e-10
-9.41836e-10
-9.63818e-10
-9.85843e-10
-1.00784e-09
-1.02986e-09
-1.05184e-09
-1.07388e-09
-1.09587e-09
-1.11789e-09
-1.13992e-09
-1.16194e-09
-1.184e-09
-1.206e-09
-1.2281e-09
-1.25016e-09
-1.27224e-09
-1.29436e-09
-1.31652e-09
-1.3387e-09
-1.36098e-09
-1.38334e-09
-1.40581e-09
-1.42852e-09
-1.45138e-09
-1.47462e-09
-1.49824e-09
-1.52251e-09
-1.54764e-09
-1.57386e-09
-1.60176e-09
-1.63181e-09
-1.66487e-09
-1.70196e-09
-1.74455e-09
-1.79439e-09
-1.85369e-09
-1.92446e-09
-2.01216e-09
-2.10982e-09
-2.26306e-09
8.04578e-11
-1.65254e-11
-3.81522e-11
-5.99059e-11
-8.26483e-11
-1.05144e-10
-1.27477e-10
-1.49608e-10
-1.71702e-10
-1.93745e-10
-2.15763e-10
-2.3774e-10
-2.59742e-10
-2.81747e-10
-3.03727e-10
-3.25721e-10
-3.4768e-10
-3.69704e-10
-3.91721e-10
-4.13699e-10
-4.35689e-10
-4.57734e-10
-4.79682e-10
-5.017e-10
-5.23765e-10
-5.45717e-10
-5.67728e-10
-5.89744e-10
-6.1172e-10
-6.33754e-10
-6.55749e-10
-6.77752e-10
-6.99744e-10
-7.21749e-10
-7.43762e-10
-7.65774e-10
-7.87782e-10
-8.09786e-10
-8.31799e-10
-8.53775e-10
-8.758e-10
-8.97807e-10
-9.19807e-10
-9.41824e-10
-9.63773e-10
-9.85827e-10
-1.00782e-09
-1.02984e-09
-1.05188e-09
-1.07384e-09
-1.09587e-09
-1.1179e-09
-1.13992e-09
-1.16194e-09
-1.18393e-09
-1.20602e-09
-1.22802e-09
-1.2501e-09
-1.27221e-09
-1.29433e-09
-1.31648e-09
-1.33868e-09
-1.36095e-09
-1.3833e-09
-1.40577e-09
-1.42842e-09
-1.45134e-09
-1.47449e-09
-1.49819e-09
-1.52246e-09
-1.54758e-09
-1.57388e-09
-1.60182e-09
-1.63194e-09
-1.66511e-09
-1.70236e-09
-1.74515e-09
-1.79526e-09
-1.85467e-09
-1.92504e-09
-2.01082e-09
-2.1248e-09
-2.26055e-09
5.25378e-11
-1.49255e-11
-3.74553e-11
-6.00385e-11
-8.27217e-11
-1.05211e-10
-1.27504e-10
-1.49637e-10
-1.71719e-10
-1.93762e-10
-2.15775e-10
-2.37772e-10
-2.59782e-10
-2.81742e-10
-3.0371e-10
-3.25737e-10
-3.47724e-10
-3.69744e-10
-3.9172e-10
-4.13706e-10
-4.35715e-10
-4.5772e-10
-4.79761e-10
-5.01747e-10
-5.23687e-10
-5.45735e-10
-5.67743e-10
-5.89728e-10
-6.11783e-10
-6.33751e-10
-6.55781e-10
-6.77734e-10
-6.99783e-10
-7.21772e-10
-7.43753e-10
-7.65769e-10
-7.87794e-10
-8.09774e-10
-8.3179e-10
-8.53795e-10
-8.75796e-10
-8.97794e-10
-9.19792e-10
-9.41823e-10
-9.63812e-10
-9.85838e-10
-1.00784e-09
-1.02985e-09
-1.05182e-09
-1.07387e-09
-1.09589e-09
-1.1179e-09
-1.13989e-09
-1.16193e-09
-1.18396e-09
-1.20602e-09
-1.22809e-09
-1.25013e-09
-1.27223e-09
-1.29431e-09
-1.31643e-09
-1.33866e-09
-1.36093e-09
-1.38326e-09
-1.40574e-09
-1.42844e-09
-1.45124e-09
-1.47455e-09
-1.49811e-09
-1.52241e-09
-1.5475e-09
-1.57387e-09
-1.60181e-09
-1.63198e-09
-1.66522e-09
-1.70263e-09
-1.74553e-09
-1.7958e-09
-1.8555e-09
-1.92697e-09
-2.0135e-09
-2.16039e-09
-2.26163e-09
5.00399e-11
-1.84793e-11
-3.84169e-11
-6.01679e-11
-8.27924e-11
-1.05242e-10
-1.27534e-10
-1.49631e-10
-1.71731e-10
-1.93763e-10
-2.15781e-10
-2.37718e-10
-2.59768e-10
-2.81741e-10
-3.03783e-10
-3.25692e-10
-3.47752e-10
-3.69677e-10
-3.91703e-10
-4.13716e-10
-4.35712e-10
-4.57702e-10
-4.79693e-10
-5.01698e-10
-5.23765e-10
-5.45728e-10
-5.6771e-10
-5.8975e-10
-6.11719e-10
-6.33757e-10
-6.55742e-10
-6.77764e-10
-6.99743e-10
-7.21759e-10
-7.4378e-10
-7.65736e-10
-7.87785e-10
-8.0977e-10
-8.31784e-10
-8.53785e-10
-8.75792e-10
-8.97787e-10
-9.19797e-10
-9.4182e-10
-9.638e-10
-9.85824e-10
-1.00781e-09
-1.02982e-09
-1.05188e-09
-1.07384e-09
-1.09586e-09
-1.11787e-09
-1.13994e-09
-1.16195e-09
-1.18397e-09
-1.20599e-09
-1.22799e-09
-1.25005e-09
-1.27218e-09
-1.2943e-09
-1.31647e-09
-1.33862e-09
-1.36088e-09
-1.38323e-09
-1.40568e-09
-1.42832e-09
-1.45121e-09
-1.47436e-09
-1.49805e-09
-1.52227e-09
-1.54744e-09
-1.57374e-09
-1.60173e-09
-1.63193e-09
-1.66521e-09
-1.70268e-09
-1.74569e-09
-1.79605e-09
-1.85587e-09
-1.9267e-09
-2.01113e-09
-2.15927e-09
-2.26217e-09
4.90472e-11
-1.56549e-11
-3.75263e-11
-6.01628e-11
-8.2841e-11
-1.05265e-10
-1.27526e-10
-1.49695e-10
-1.71719e-10
-1.93776e-10
-2.15737e-10
-2.37795e-10
-2.59779e-10
-2.8174e-10
-3.0368e-10
-3.2575e-10
-3.47707e-10
-3.69754e-10
-3.91699e-10
-4.13701e-10
-4.35702e-10
-4.57763e-10
-4.79738e-10
-5.01714e-10
-5.23702e-10
-5.45702e-10
-5.6777e-10
-5.89727e-10
-6.11766e-10
-6.33741e-10
-6.55758e-10
-6.77729e-10
-6.9979e-10
-7.21778e-10
-7.43747e-10
-7.65744e-10
-7.87785e-10
-8.09767e-10
-8.31779e-10
-8.53776e-10
-8.75788e-10
-8.97784e-10
-9.19797e-10
-9.41808e-10
-9.63785e-10
-9.85818e-10
-1.00782e-09
-1.02986e-09
-1.05181e-09
-1.07384e-09
-1.09589e-09
-1.11789e-09
-1.13989e-09
-1.16191e-09
-1.1839e-09
-1.206e-09
-1.22809e-09
-1.2501e-09
-1.27218e-09
-1.29427e-09
-1.31635e-09
-1.33861e-09
-1.36084e-09
-1.38318e-09
-1.40563e-09
-1.42831e-09
-1.4511e-09
-1.47436e-09
-1.49792e-09
-1.52219e-09
-1.54725e-09
-1.57361e-09
-1.60157e-09
-1.63179e-09
-1.66507e-09
-1.70255e-09
-1.74558e-09
-1.79603e-09
-1.85595e-09
-1.92774e-09
-2.01406e-09
-2.15986e-09
-2.26254e-09
4.80895e-11
-1.7176e-11
-3.8042e-11
-6.02202e-11
-8.28376e-11
-1.05288e-10
-1.2755e-10
-1.49624e-10
-1.71738e-10
-1.93771e-10
-2.15797e-10
-2.37741e-10
-2.5976e-10
-2.81742e-10
-3.03784e-10
-3.25681e-10
-3.47775e-10
-3.69668e-10
-3.91723e-10
-4.13729e-10
-4.35704e-10
-4.57673e-10
-4.79703e-10
-5.01749e-10
-5.23746e-10
-5.45756e-10
-5.67691e-10
-5.89748e-10
-6.11747e-10
-6.3376e-10
-6.55753e-10
-6.77758e-10
-6.99729e-10
-7.21747e-10
-7.43782e-10
-7.65739e-10
-7.87791e-10
-8.09759e-10
-8.31772e-10
-8.53775e-10
-8.75787e-10
-8.97775e-10
-9.19793e-10
-9.41805e-10
-9.63799e-10
-9.85814e-10
-1.00781e-09
-1.02981e-09
-1.05188e-09
-1.07386e-09
-1.09582e-09
-1.11787e-09
-1.13993e-09
-1.16193e-09
-1.18398e-09
-1.20597e-09
-1.22795e-09
-1.25005e-09
-1.27215e-09
-1.29425e-09
-1.31642e-09
-1.33853e-09
-1.3608e-09
-1.38313e-09
-1.40557e-09
-1.42819e-09
-1.45107e-09
-1.47419e-09
-1.49782e-09
-1.52201e-09
-1.5471e-09
-1.5734e-09
-1.60138e-09
-1.63148e-09
-1.66479e-09
-1.70226e-09
-1.74528e-09
-1.79569e-09
-1.85561e-09
-1.92702e-09
-2.01234e-09
-2.1591e-09
-2.26279e-09
4.80539e-11
-1.71896e-11
-3.80428e-11
-6.02064e-11
-8.28452e-11
-1.05275e-10
-1.27547e-10
-1.49679e-10
-1.71731e-10
-1.93773e-10
-2.15745e-10
-2.37769e-10
-2.59802e-10
-2.81731e-10
-3.03679e-10
-3.25717e-10
-3.47725e-10
-3.69742e-10
-3.9166e-10
-4.13686e-10
-4.35725e-10
-4.57778e-10
-4.7974e-10
-5.01693e-10
-5.23724e-10
-5.45692e-10
-5.67762e-10
-5.89739e-10
-6.11726e-10
-6.33733e-10
-6.55727e-10
-6.77752e-10
-6.99778e-10
-7.21741e-10
-7.43759e-10
-7.65771e-10
-7.87752e-10
-8.09768e-10
-8.31765e-10
-8.53784e-10
-8.75775e-10
-8.97795e-10
-9.19789e-10
-9.41805e-10
-9.63795e-10
-9.85817e-10
-1.00781e-09
-1.02983e-09
-1.05182e-09
-1.07381e-09
-1.09588e-09
-1.11788e-09
-1.13987e-09
-1.1619e-09
-1.18388e-09
-1.20597e-09
-1.22806e-09
-1.25006e-09
-1.27213e-09
-1.29422e-09
-1.3163e-09
-1.33855e-09
-1.36076e-09
-1.38309e-09
-1.40552e-09
-1.42815e-09
-1.45092e-09
-1.47411e-09
-1.49763e-09
-1.52187e-09
-1.54689e-09
-1.57313e-09
-1.60104e-09
-1.63116e-09
-1.66438e-09
-1.70177e-09
-1.74465e-09
-1.79507e-09
-1.85491e-09
-1.92621e-09
-2.01154e-09
-2.15823e-09
-2.26186e-09
4.90258e-11
-1.58365e-11
-3.75838e-11
-6.01741e-11
-8.28193e-11
-1.05278e-10
-1.27518e-10
-1.49667e-10
-1.71703e-10
-1.93764e-10
-2.15782e-10
-2.37761e-10
-2.5976e-10
-2.81765e-10
-3.03741e-10
-3.25694e-10
-3.47771e-10
-3.69702e-10
-3.91705e-10
-4.13733e-10
-4.35694e-10
-4.57686e-10
-4.79687e-10
-5.01747e-10
-5.23746e-10
-5.45757e-10
-5.67711e-10
-5.89739e-10
-6.11724e-10
-6.33761e-10
-6.55785e-10
-6.77756e-10
-6.99741e-10
-7.21741e-10
-7.43753e-10
-7.65765e-10
-7.87808e-10
-8.09766e-10
-8.31762e-10
-8.53772e-10
-8.75784e-10
-8.97794e-10
-9.19791e-10
-9.41802e-10
-9.63793e-10
-9.85818e-10
-1.00781e-09
-1.02982e-09
-1.05186e-09
-1.07388e-09
-1.09583e-09
-1.11786e-09
-1.13993e-09
-1.16191e-09
-1.18396e-09
-1.20595e-09
-1.22792e-09
-1.25007e-09
-1.27211e-09
-1.29421e-09
-1.31637e-09
-1.33847e-09
-1.36072e-09
-1.38299e-09
-1.40544e-09
-1.42803e-09
-1.45087e-09
-1.47395e-09
-1.49754e-09
-1.52165e-09
-1.54664e-09
-1.57285e-09
-1.60067e-09
-1.63068e-09
-1.66382e-09
-1.70105e-09
-1.74397e-09
-1.7941e-09
-1.8538e-09
-1.92552e-09
-2.01181e-09
-2.15725e-09
-2.26044e-09
4.99378e-11
-1.839e-11
-3.83942e-11
-6.01649e-11
-8.27795e-11
-1.05238e-10
-1.27519e-10
-1.49645e-10
-1.71717e-10
-1.93753e-10
-2.15782e-10
-2.37741e-10
-2.59772e-10
-2.81717e-10
-3.03702e-10
-3.25698e-10
-3.47717e-10
-3.69717e-10
-3.91672e-10
-4.13686e-10
-4.35718e-10
-4.57751e-10
-4.79737e-10
-5.01703e-10
-5.23701e-10
-5.45702e-10
-5.67745e-10
-5.89745e-10
-6.11753e-10
-6.33729e-10
-6.55684e-10
-6.77762e-10
-6.99748e-10
-7.21793e-10
-7.43749e-10
-7.65771e-10
-7.87767e-10
-8.09771e-10
-8.31759e-10
-8.53796e-10
-8.75781e-10
-8.97796e-10
-9.19796e-10