/*--------------------------------*- C++ -*----------------------------------*\
| =========                 |                                                 |
| \\      /  F ield         | OpenFOAM: The Open Source CFD Toolbox           |
|  \\    /   O peration     | Version:  v1906                                 |
|   \\  /    A nd           | Web:      www.OpenFOAM.com                      |
|    \\/     M anipulation  |                                                 |
\*---------------------------------------------------------------------------*/
FoamFile
{
    version     2.0;
    format      ascii;
    class       volScalarField;
    location    "0.00018";
    object      p;
}
// * * * * * * * * * * * * * * * * * * * * * * * * * * * * * * * * * * * * * //

dimensions      [0 2 -2 0 0 0 0];


internalField   nonuniform List<scalar> 
243374
(
-0.00456219
-0.00472514
-0.00508919
-0.00496043
-0.00498945
-0.00498477
-0.00498838
-0.00499128
-0.00500026
-0.00501365
-0.00502862
-0.00504451
-0.00506186
-0.00508234
-0.00510394
-0.00512376
-0.0051411
-0.00515554
-0.00516531
-0.0051701
-0.00516837
-0.00516004
-0.00514459
-0.00512241
-0.00509163
-0.00504607
-0.00498047
-0.0048935
-0.00478136
-0.00463669
-0.00444583
-0.00419837
-0.00388122
-0.00348126
-0.0029776
-0.00233905
-0.0015321
-0.00051688
0.000757093
0.00235523
0.00435696
0.00686141
0.00999049
0.0138973
0.0187688
0.0248494
0.032442
0.0419022
0.0536908
0.0683858
0.0866972
0.109519
0.137945
0.173344
0.217376
0.27233
0.340716
0.425784
0.531594
0.663705
0.82757
1.03075
1.2828
1.59521
1.97811
2.46173
3.05757
3.7849
4.67569
5.76137
7.07612
8.65513
10.5314
12.7301
15.2607
18.1059
21.2072
24.4359
27.4864
30.5804
-0.00435257
-0.00422222
-0.00451259
-0.00438982
-0.00441787
-0.00440962
-0.00440978
-0.00441068
-0.00441854
-0.00443116
-0.00444588
-0.00446134
-0.00447854
-0.004499
-0.00452063
-0.00454024
-0.00455736
-0.00457155
-0.00458106
-0.00458567
-0.00458379
-0.00457522
-0.00455928
-0.00453658
-0.00450525
-0.00445897
-0.00439252
-0.00430471
-0.00419161
-0.00404522
-0.00385226
-0.00360195
-0.00328102
-0.00287679
-0.00236837
-0.00172345
-0.000908285
0.000116827
0.00140278
0.00301552
0.00503609
0.00756425
0.0107218
0.0146629
0.0195809
0.02572
0.0333849
0.0429311
0.0548266
0.0696613
0.0881498
0.111187
0.139882
0.175618
0.220075
0.275549
0.344595
0.430509
0.537435
0.670815
0.83643
1.04191
1.29727
1.615
2.00535
2.49314
3.08751
3.82157
4.72043
5.81543
7.14057
8.7307
10.6179
12.8259
15.3618
18.2056
21.2953
24.506
27.5843
30.617
-0.0053433
-0.00485788
-0.00522073
-0.00508054
-0.00510892
-0.00509997
-0.00509992
-0.00510045
-0.00510776
-0.00512039
-0.00513578
-0.00515152
-0.00516898
-0.00518953
-0.00521151
-0.00523102
-0.00524794
-0.00526195
-0.00527128
-0.00527586
-0.00527391
-0.00526521
-0.00524898
-0.00522569
-0.00519363
-0.00514667
-0.00507962
-0.00499122
-0.00487732
-0.0047296
-0.00453489
-0.00428215
-0.00395813
-0.00355044
-0.0030381
-0.002388
-0.00156597
-0.000532661
0.000762996
0.00238757
0.0044234
0.0069709
0.010152
0.0141207
0.0190763
0.0252636
0.032988
0.0426016
0.0545823
0.0695308
0.0881634
0.111373
0.140282
0.176287
0.2211
0.276993
0.346552
0.433122
0.540887
0.675148
0.841956
1.04856
1.3053
1.62464
2.02064
2.51085
3.11221
3.85272
4.75913
5.86293
7.19812
8.79935
10.6982
12.9173
15.4622
18.3106
21.3978
24.5975
27.6882
30.5949
-0.00517711
-0.00486872
-0.00421971
-0.00451885
-0.00437843
-0.00440652
-0.00439676
-0.00439641
-0.00439686
-0.00440412
-0.0044171
-0.0044323
-0.0044475
-0.0044647
-0.00448527
-0.0045072
-0.00452648
-0.00454322
-0.00455705
-0.00456615
-0.00457062
-0.0045687
-0.00455998
-0.00454346
-0.00451967
-0.0044869
-0.00443924
-0.00437161
-0.00428259
-0.0041678
-0.00401868
-0.00382211
-0.00356694
-0.00323992
-0.00282873
-0.00231227
-0.00165674
-0.000827592
0.000214248
0.00151995
0.0031568
0.0052084
0.007776
0.0109817
0.0149796
0.0199737
0.026211
0.0339973
0.0436807
0.0557477
0.0708132
0.0895949
0.112984
0.142112
0.178406
0.223593
0.279941
0.350051
0.437324
0.546019
0.681355
0.850145
1.05871
1.31848
1.63891
2.03782
2.53114
3.13789
3.8843
4.79794
5.91048
7.256
8.86905
10.7809
13.0134
15.571
18.4294
21.5218
24.721
27.8219
30.5925
32.2832
-0.00563786
-0.00546197
-0.00481041
-0.00515972
-0.00500403
-0.00502941
-0.00501589
-0.0050132
-0.00501214
-0.00501789
-0.00502967
-0.00504492
-0.00506039
-0.00507747
-0.00509773
-0.00511972
-0.00513908
-0.00515571
-0.00516927
-0.00517814
-0.00518255
-0.00518062
-0.00517185
-0.00515511
-0.00513076
-0.0050973
-0.00504905
-0.00498098
-0.0048915
-0.00477603
-0.00462586
-0.00442783
-0.0041707
-0.00384119
-0.00342722
-0.00290756
-0.0022477
-0.00141286
-0.000364274
0.000949482
0.00259604
0.00465994
0.00724379
0.0104696
0.0144914
0.0195161
0.0257926
0.0336267
0.0433736
0.0555211
0.0706801
0.0895829
0.113117
0.142415
0.178945
0.224417
0.281131
0.351664
0.43941
0.548744
0.684457
0.85441
1.06548
1.32692
1.6503
2.05206
2.54887
3.1606
3.91279
4.83356
5.95476
7.31074
8.93612
10.8621
13.1102
15.6841
18.5582
21.6641
24.8729
27.981
30.7444
32.4821
33.5288
-0.00557225
-0.00511786
-0.00440566
-0.00471859
-0.00456198
-0.00458833
-0.00457617
-0.00457539
-0.00457514
-0.00458144
-0.00459358
-0.0046078
-0.00462313
-0.00464004
-0.00466013
-0.00468192
-0.00470142
-0.00471816
-0.00473158
-0.00474025
-0.00474462
-0.00474279
-0.00473409
-0.00471722
-0.00469241
-0.00465833
-0.00460956
-0.00454108
-0.00445111
-0.00433496
-0.00418374
-0.00398425
-0.00372528
-0.00339365
-0.0029771
-0.00245417
-0.00179009
-0.000949756
0.000105431
0.00142701
0.00308309
0.00515898
0.00775861
0.0110041
0.0150497
0.0201039
0.0264184
0.0342996
0.0441087
0.0563319
0.0715797
0.0906
0.11428
0.143743
0.180512
0.226265
0.283371
0.354531
0.442751
0.552944
0.690427
0.860173
1.07227
1.33527
1.66109
2.06537
2.56536
3.18148
3.93907
4.86658
5.99621
7.36261
9.0007
10.9418
13.2076
15.8013
18.6968
21.8242
25.0536
28.1792
30.9416
32.6995
33.7693
-0.00556022
-0.00535112
-0.00463759
-0.00496372
-0.00479987
-0.00482431
-0.00480972
-0.00480695
-0.00480591
-0.00481153
-0.00482316
-0.00483731
-0.0048525
-0.00486928
-0.00488923
-0.00491089
-0.00493037
-0.00494698
-0.00496024
-0.00496878
-0.0049731
-0.00497136
-0.00496274
-0.00494576
-0.00492054
-0.00488593
-0.00483674
-0.00476797
-0.00467764
-0.00456095
-0.00440893
-0.00420838
-0.00394811
-0.00361487
-0.00319641
-0.00267111
-0.00200381
-0.00115941
-9.94133e-05
0.00122816
0.00289147
0.00497621
0.00758768
0.0108479
0.0149112
0.0199874
0.0263298
0.0342458
0.0441006
0.0563796
0.0716921
0.0907965
0.114581
0.144182
0.18112
0.227035
0.284339
0.355585
0.444781
0.555556
0.693483
0.864601
1.07777
1.34232
1.67023
2.07691
2.57992
3.20011
3.96282
4.89684
6.03478
7.41171
9.06302
11.0206
13.3062
15.9237
18.8465
22.0041
25.2653
28.4198
31.2036
32.9712
34.0609
-0.00557239
-0.00536791
-0.00464466
-0.00496682
-0.00480128
-0.00482507
-0.00481024
-0.00480737
-0.00480629
-0.00481189
-0.00482334
-0.0048373
-0.00485236
-0.00486909
-0.00488903
-0.00491073
-0.00493019
-0.00494672
-0.00495981
-0.00496818
-0.00497251
-0.00497085
-0.00496232
-0.00494531
-0.00491986
-0.0048848
-0.00483531
-0.00476633
-0.00467567
-0.00455851
-0.00440579
-0.00420434
-0.00394302
-0.00360868
-0.00318868
-0.00266121
-0.00199119
-0.00114344
-7.93635e-05
0.00125327
0.00292282
0.00501507
0.00763639
0.010909
0.0149874
0.0200826
0.0264489
0.0343948
0.0442881
0.0566138
0.0719855
0.0911647
0.115043
0.14476
0.181848
0.227958
0.285512
0.357147
0.446594
0.557839
0.696281
0.868347
1.08244
1.34828
1.67793
2.08674
2.59247
3.21634
3.9838
4.92396
6.06991
7.4573
9.12214
11.097
13.4046
16.0493
19.005
22.2009
25.5037
28.6994
31.5231
33.3033
34.4154
-0.00562592
-0.00516737
-0.00442647
-0.00472763
-0.00456627
-0.00459087
-0.00457812
-0.00457713
-0.0045767
-0.00458273
-0.00459441
-0.0046081
-0.00462298
-0.00463968
-0.00465972
-0.00468146
-0.00470092
-0.00471744
-0.0047305
-0.00473889
-0.00474325
-0.00474175
-0.00473345
-0.00471648
-0.00469081
-0.00465542
-0.00460573
-0.00453659
-0.00444567
-0.00432815
-0.00417482
-0.00397276
-0.00371085
-0.00337586
-0.00295484
-0.00242584
-0.00175384
-0.000903795
0.000163031
0.00149942
0.00317367
0.00527131
0.00789948
0.0111806
0.0152698
0.0203789
0.026762
0.0347293
0.0446491
0.0570067
0.072424
0.0916582
0.115605
0.145398
0.182589
0.228873
0.286606
0.358485
0.448167
0.559792
0.698743
0.871414
1.08629
1.35321
1.68434
2.09498
2.60312
3.23028
4.00212
4.94807
6.1018
7.49966
9.17847
11.1719
13.5037
16.1795
19.1741
22.4168
25.7725
29.0232
31.9073
33.7014
34.8307
-0.00572352
-0.00555645
-0.00484618
-0.00517513
-0.00501118
-0.00503359
-0.00501906
-0.00501598
-0.00501469
-0.00502012
-0.00503112
-0.00504545
-0.00506021
-0.00507698
-0.00509719
-0.00511915
-0.0051384
-0.00515466
-0.00516758
-0.00517588
-0.00518026
-0.00517888
-0.00517072
-0.00515381
-0.00512788
-0.00509219
-0.00504241
-0.00497326
-0.0048821
-0.00476424
-0.00461053
-0.00440806
-0.00414583
-0.00381063
-0.00338896
-0.00285868
-0.00218524
-0.00133374
-0.000265022
0.00107411
0.00275197
0.00485348
0.00748633
0.0107734
0.0148703
0.0199897
0.0263848
0.0343672
0.0443047
0.0566839
0.0721369
0.09141
0.115404
0.145283
0.182552
0.228967
0.286834
0.358878
0.448748
0.560647
0.699941
0.873129
1.08864
1.35639
1.68881
2.10102
2.61123
3.24125
4.01704
4.96837
6.12949
7.53762
9.23056
11.2433
13.6011
16.3112
19.3502
22.6477
26.0671
29.3851
32.3523
34.1548
35.2834
-0.00572146
-0.00501432
-0.0042694
-0.00453949
-0.00438793
-0.00441206
-0.00440099
-0.00440016
-0.00440026
-0.00440697
-0.00441894
-0.00443289
-0.00444706
-0.00446381
-0.00448425
-0.00450613
-0.00452529
-0.00454154
-0.00455451
-0.0045629
-0.00456737
-0.00456618
-0.00455833
-0.00454158
-0.0045156
-0.0044798
-0.00443004
-0.00436086
-0.00426954
-0.00415149
-0.00399744
-0.00379484
-0.00353276
-0.00319783
-0.00277599
-0.00224507
-0.00157102
-0.00071909
0.000350244
0.00169074
0.00337047
0.00547368
0.00810823
0.0113975
0.0154983
0.0206226
0.0270224
0.0350114
0.0449558
0.0573403
0.0728088
0.0920963
0.116113
0.146038
0.183343
0.229823
0.287753
0.359899
0.449874
0.56193
0.701429
0.874965
1.0909
1.35926
1.69257
2.10592
2.61775
3.25008
4.02931
4.98558
6.15362
7.57174
9.2789
11.3118
13.6973
16.4453
19.5341
22.8949
26.3894
29.7869
32.8609
34.6577
35.699
-0.00550437
-0.00558516
-0.00492213
-0.00524681
-0.00509251
-0.00511605
-0.00510552
-0.00510484
-0.00510495
-0.00511166
-0.00512301
-0.00513677
-0.00515123
-0.00516812
-0.00518853
-0.00521044
-0.00522974
-0.00524604
-0.00525898
-0.00526737
-0.0052719
-0.00527091
-0.00526324
-0.00524662
-0.00522054
-0.00518465
-0.00513502
-0.00506602
-0.00497459
-0.00485634
-0.00470225
-0.00449979
-0.00423817
-0.0039039
-0.00348232
-0.00295117
-0.00227714
-0.00142574
-0.000356844
0.000983797
0.00266397
0.00476691
0.0074006
0.0106896
0.0147914
0.0199163
0.0263146
0.0343016
0.0442491
0.0566434
0.0721132
0.0913992
0.11542
0.145364
0.182678
0.22918
0.287127
0.359307
0.449323
0.561443
0.701033
0.874781
1.09097
1.35971
1.69358
2.10779
2.62088
3.25514
4.03732
4.99845
6.17286
7.6006
9.32208
11.3759
13.7905
16.5794
19.7235
23.1558
26.7365
30.2198
33.5373
35.1767
-0.00470396
-0.00429836
-0.00454237
-0.00440348
-0.00442606
-0.00441605
-0.00441553
-0.0044159
-0.00442299
-0.00443415
-0.00444695
-0.00446085
-0.00447735
-0.00449759
-0.00451914
-0.00453854
-0.00455494
-0.00456788
-0.0045763
-0.0045809
-0.00458009
-0.00457272
-0.00455633
-0.00453032
-0.00449449
-0.00444506
-0.00437616
-0.00428465
-0.00416637
-0.0040123
-0.00381017
-0.00354932
-0.00321608
-0.00279508
-0.00226419
-0.00159088
-0.000740737
0.000326851
0.00166654
0.0033457
0.00544676
0.00807743
0.0113635
0.0154633
0.0205847
0.0269762
0.0349549
0.044897
0.0572885
0.0727453
0.0920133
0.116017
0.145948
0.183242
0.229726
0.287642
0.359785
0.449767
0.561849
0.701395
0.875244
1.09151
1.36039
1.69453
2.10923
2.62313
3.25882
4.04337
5.00835
6.18818
7.62432
9.35946
11.4339
13.8777
16.7093
19.912
23.4221
27.0978
30.6564
34.1578
-0.00532009
-0.00480853
-0.00512223
-0.00497578
-0.00499894
-0.00499231
-0.00499501
-0.00499724
-0.00500535
-0.00501708
-0.0050299
-0.00504405
-0.00506053
-0.00508072
-0.00510221
-0.00512181
-0.00513839
-0.00515145
-0.00516
-0.00516471
-0.00516414
-0.005157
-0.00514081
-0.00511489
-0.00507915
-0.00502999
-0.0049614
-0.00486992
-0.00475161
-0.0045978
-0.00439632
-0.00413657
-0.00380468
-0.00338474
-0.00285465
-0.0021828
-0.00133489
-0.00026973
0.00106757
0.00274404
0.00484117
0.00746614
0.0107457
0.0148394
0.0199519
0.0263301
0.0342925
0.0442172
0.0565908
0.0720194
0.0912502
0.115211
0.145095
0.182328
0.228739
0.286559
0.358629
0.44849
0.560425
0.699782
0.873577
1.08971
1.3585
1.69262
2.10748
2.62184
3.25856
4.04517
5.01377
6.1984
7.64302
9.39249
11.4902
13.9676
16.8467
20.1162
23.7162
27.5032
31.1546
34.7855
-0.00545114
-0.00480414
-0.00514582
-0.00502439
-0.00504803
-0.00504458
-0.00505232
-0.00506197
-0.00507575
-0.0050896
-0.00510589
-0.00512362
-0.00514193
-0.0051592
-0.00517974
-0.0051993
-0.005217
-0.00523253
-0.00524359
-0.00524916
-0.00524866
-0.00524234
-0.00522966
-0.00521032
-0.00518238
-0.00514053
-0.00507959
-0.00499717
-0.00489016
-0.00475475
-0.00457475
-0.00434251
-0.00404546
-0.00366815
-0.00318969
-0.00258378
-0.00181878
-0.000854146
0.000357125
0.00186889
0.00376583
0.00614276
0.00911522
0.0128171
0.0174444
0.0232182
0.0304276
0.0394132
0.0506143
0.0645664
0.0819171
0.103588
0.13058
0.164187
0.206032
0.258217
0.323146
0.403848
0.504322
0.628898
0.784032
0.976928
1.21454
1.5146
1.88405
2.33934
2.9021
3.59524
4.44635
5.48728
6.75388
8.28493
10.1199
12.2947
14.8341
17.741
20.9789
24.4428
27.9106
31.2866
-0.00515332
-0.00467898
-0.00421603
-0.00445707
-0.00433913
-0.00435446
-0.00434126
-0.00433832
-0.00433672
-0.00434134
-0.00434843
-0.00435974
-0.0043735
-0.00438914
-0.00440639
-0.00442633
-0.00444521
-0.0044624
-0.00447739
-0.00448798
-0.00449319
-0.00449216
-0.00448517
-0.00447176
-0.00445176
-0.0044233
-0.00438063
-0.00431841
-0.00423466
-0.00412623
-0.00398843
-0.00380576
-0.00356983
-0.00326791
-0.002885
-0.00240012
-0.00178608
-0.00101092
-3.37663e-05
0.00119352
0.00272743
0.00465036
0.00705868
0.01007
0.0138234
0.0185089
0.0243554
0.031657
0.0407584
0.0521022
0.0662311
0.0838173
0.105769
0.133117
0.167182
0.209597
0.262527
0.32839
0.410309
0.512449
0.639362
0.796579
0.992803
1.23675
1.53608
1.90989
2.37106
2.94107
3.64259
4.50329
5.55484
6.83252
8.37405
10.217
12.3942
14.926
17.8096
21.0029
24.3992
27.788
30.9507
32.9045
-0.00534606
-0.00550896
-0.00482324
-0.00518937
-0.00505615
-0.00508053
-0.00507492
-0.00508086
-0.00508744
-0.00509875
-0.00511294
-0.00512793
-0.00514389
-0.00516088
-0.00518004
-0.00520007
-0.00521909
-0.00523604
-0.00525051
-0.00526061
-0.00526542
-0.00526393
-0.00525629
-0.00524204
-0.00522132
-0.0051921
-0.00514846
-0.00508515
-0.00500037
-0.00489079
-0.00475096
-0.00456588
-0.00432658
-0.00402026
-0.00363239
-0.00314207
-0.00252109
-0.00173699
-0.000749151
0.000491235
0.00204613
0.00399378
0.00643152
0.00947961
0.0132854
0.0180274
0.0239453
0.0313364
0.0405499
0.0520323
0.0663353
0.0841462
0.106363
0.134034
0.168498
0.211383
0.26491
0.331484
0.414253
0.517201
0.645723
0.805548
1.00399
1.25013
1.55424
1.93239
2.39894
2.97563
3.68483
4.5544
5.61585
6.90408
8.45589
10.3073
12.4887
15.0166
17.8834
21.0417
24.3831
27.7031
30.7454
32.6728
33.8673
-0.00565108
-0.00447366
-0.00405164
-0.00433059
-0.00421039
-0.00422932
-0.00421647
-0.00421288
-0.00420991
-0.00421377
-0.00422238
-0.00423346
-0.0042469
-0.0042628
-0.00428278
-0.00430332
-0.00432222
-0.00433913
-0.00435361
-0.00436358
-0.00436849
-0.00436698
-0.00435915
-0.00434451
-0.00432329
-0.00429355
-0.00424923
-0.00418501
-0.00409933
-0.00398871
-0.00384685
-0.00365939
-0.00341677
-0.00310595
-0.00271306
-0.00221726
-0.00158899
-0.000795479
0.000203619
0.00145804
0.00303194
0.0050025
0.00746803
0.0105502
0.0144
0.0191948
0.025179
0.0326532
0.04197
0.0535807
0.0680465
0.0860664
0.108536
0.136522
0.171377
0.214733
0.268877
0.336224
0.419983
0.524172
0.65435
0.815853
1.01617
1.26479
1.57281
1.95489
2.42673
3.00988
3.72643
4.60462
5.67585
6.97463
8.53704
10.3977
12.5847
15.1113
17.9658
21.0958
24.388
27.6281
30.5656
32.4556
33.5507
-0.00527893
-0.00527837
-0.00466607
-0.00499816
-0.00486884
-0.0048969
-0.0048947
-0.00490064
-0.00490484
-0.00491413
-0.00492698
-0.00494088
-0.0049557
-0.00497183
-0.00499125
-0.00501198
-0.00503142
-0.00504858
-0.00506286
-0.00507249
-0.00507713
-0.00507527
-0.00506689
-0.00505149
-0.00502948
-0.00499898
-0.00495372
-0.00488845
-0.00480187
-0.00469025
-0.00454658
-0.00435688
-0.00411102
-0.00379595
-0.00339846
-0.00289768
-0.0022628
-0.00146057
-0.000451059
0.000815901
0.00240556
0.00439633
0.00688705
0.00999956
0.0138865
0.0187308
0.0247772
0.0323283
0.0417389
0.0534657
0.0680804
0.0862905
0.10899
0.137265
0.172478
0.216274
0.270947
0.338984
0.423614
0.528859
0.660409
0.823504
1.02576
1.27672
1.588
1.97332
2.45069
3.0401
3.76339
4.64956
5.72991
7.03874
8.6115
10.4816
12.6753
15.2031
18.0497
21.159
24.418
27.6609
30.4577
32.2019
33.5187
-0.00508656
-0.00417595
-0.00391904
-0.00414298
-0.00405722
-0.00409459
-0.00408872
-0.00408932
-0.00408955
-0.00409633
-0.00410627
-0.00411711
-0.00413021
-0.00414493
-0.00416307
-0.00418313
-0.00420196
-0.00421873
-0.00423252
-0.00424141
-0.00424562
-0.00424334
-0.00423449
-0.00421838
-0.0041956
-0.00416426
-0.0041181
-0.00405193
-0.00396451
-0.0038519
-0.00370647
-0.00351455
-0.00326572
-0.00294667
-0.00254481
-0.0020394
-0.00139815
-0.000587498
0.000431974
0.0017107
0.00331489
0.00532462
0.00783902
0.0109802
0.0149007
0.0197916
0.0258968
0.0335209
0.0430185
0.0548524
0.0696073
0.0879965
0.110914
0.139464
0.175023
0.219225
0.274422
0.34314
0.428653
0.535046
0.667816
0.832519
1.03701
1.29086
1.60601
1.99535
2.47861
3.07275
3.80358
4.69844
5.78872
7.10849
8.69276
10.5739
12.7763
15.308
18.1502
21.2431
24.4725
27.69
30.5348
32.2897
33.4389
-0.00499297
-0.00515021
-0.00465049
-0.00492122
-0.00481265
-0.00484571
-0.0048455
-0.00485433
-0.00485818
-0.00486929
-0.00488372
-0.0048972
-0.0049106
-0.00492554
-0.00494306
-0.00496301
-0.00498147
-0.00499799
-0.00501159
-0.00502013
-0.00502421
-0.00502171
-0.00501258
-0.00499599
-0.00497244
-0.00494023
-0.00489323
-0.00482625
-0.00473805
-0.00462444
-0.00447745
-0.00428347
-0.00403172
-0.00370897
-0.00330305
-0.00279308
-0.00214575
-0.00132705
-0.000297971
0.000992054
0.00261008
0.00463776
0.00717467
0.0103433
0.0142952
0.0192299
0.0253914
0.0330855
0.0426601
0.0545897
0.0694756
0.0880306
0.111146
0.139945
0.175803
0.220444
0.276119
0.345425
0.431699
0.539098
0.67295
0.83888
1.04507
1.30154
1.61939
2.01299
2.50042
3.09995
3.83733
4.74006
5.83959
7.16992
8.76575
10.6588
12.8723
15.4123
18.2576
21.3453
24.558
27.7263
30.5502
32.3571
33.4191
-0.00510594
-0.0039934
-0.00400103
-0.00414793
-0.00409319
-0.00413482
-0.004143
-0.00415335
-0.00415977
-0.00417241
-0.00418639
-0.00419307
-0.00420424
-0.00421934
-0.00423661
-0.00425613
-0.00427386
-0.00429008
-0.00430361
-0.00431187
-0.00431576
-0.00431321
-0.00430397
-0.00428702
-0.00426292
-0.00422998
-0.00418225
-0.00411465
-0.0040258
-0.00391129
-0.00376292
-0.00356704
-0.00331284
-0.00298702
-0.00257756
-0.00206354
-0.00141078
-0.000584907
0.000452717
0.00175274
0.00338299
0.00542656
0.00798362
0.0111766
0.0151564
0.0201297
0.0263426
0.0341035
0.0437329
0.0557237
0.07072
0.0894163
0.1127
0.141705
0.177837
0.22284
0.278953
0.348756
0.435712
0.543977
0.678878
0.846481
1.05446
1.31296
1.63304
2.03007
2.52126
3.12597
3.86955
4.77985
5.88843
7.22938
8.83726
10.7435
12.9703
15.5226
18.3771
21.4687
24.6773
27.8239
30.6615
32.6592
33.4923
-0.00508727
-0.0046602
-0.00456185
-0.00473061
-0.00466643
-0.00470932
-0.00471142
-0.00472055
-0.0047247
-0.00473885
-0.00475457
-0.00476845
-0.00478143
-0.00479601
-0.00481272
-0.00483227
-0.00485051
-0.00486675
-0.00487984
-0.00488763
-0.00489132
-0.00488864
-0.00487924
-0.00486194
-0.00483717
-0.00480344
-0.00475504
-0.00468687
-0.00459743
-0.00448214
-0.00433255
-0.00413504
-0.00387865
-0.00355008
-0.00313756
-0.00261997
-0.00196243
-0.0011303
-8.52811e-05
0.0012236
0.00286448
0.00492151
0.00749659
0.0107119
0.0147184
0.0197248
0.0259799
0.0337894
0.0435014
0.0556027
0.0707058
0.0895425
0.112992
0.142183
0.178585
0.223917
0.280464
0.350643
0.438188
0.547203
0.682938
0.851925
1.06171
1.32219
1.6448
2.04493
2.53979
3.14939
3.8989
4.81648
5.93396
7.28563
8.90614
10.8268
13.0694
15.638
18.508
21.6124
24.8289
27.9733
30.8148
32.8102
33.6476
-0.0053083
-0.00409643
-0.00417357
-0.00429207
-0.00424778
-0.00429336
-0.00430697
-0.0043234
-0.00432379
-0.00433644
-0.00435038
-0.00436086
-0.00437366
-0.00438806
-0.00440457
-0.00442397
-0.00444264
-0.00445923
-0.00447223
-0.00447981
-0.00448345
-0.00448087
-0.00447154
-0.00445413
-0.00442894
-0.00439462
-0.00434571
-0.00427715
-0.00418725
-0.00407132
-0.00392072
-0.00372183
-0.00346368
-0.00313309
-0.0027181
-0.0021974
-0.00153583
-0.000698469
0.000352826
0.00166917
0.00331902
0.00538738
0.0079778
0.011212
0.0152413
0.0202754
0.0265668
0.034421
0.0441939
0.0563697
0.0715561
0.0905079
0.1141
0.143395
0.180014
0.225574
0.282429
0.353169
0.441267
0.551054
0.687641
0.857494
1.06867
1.33082
1.65571
2.05858
2.55685
3.171
3.92614
4.85076
5.97699
7.33946
8.97311
10.9094
13.1701
15.759
18.6508
21.7771
25.0135
28.1734
31.0307
33.034
33.8716
-0.00536221
-0.00433512
-0.00438367
-0.00450394
-0.004456
-0.00450223
-0.00451404
-0.0045242
-0.00452818
-0.00454158
-0.0045569
-0.00456985
-0.00458285
-0.00459707
-0.00461335
-0.00463264
-0.00465141
-0.00466778
-0.00468057
-0.00468792
-0.00469144
-0.00468889
-0.00467958
-0.00466201
-0.00463637
-0.00460149
-0.00455212
-0.00448321
-0.00439288
-0.00427633
-0.0041248
-0.00392473
-0.00366513
-0.00333276
-0.00291564
-0.00239228
-0.00172713
-0.000885288
0.000171333
0.00149436
0.00315226
0.00523048
0.00783419
0.0110847
0.0151338
0.0201921
0.0265147
0.0344073
0.0442316
0.0564721
0.0717287
0.0907715
0.114481
0.143978
0.180813
0.226506
0.283626
0.354758
0.443426
0.553808
0.691098
0.86194
1.07433
1.33803
1.66495
2.07033
2.57174
3.19007
3.9505
4.88182
6.0166
7.38991
9.03718
10.9904
13.2716
15.8849
18.8048
21.9621
25.2307
28.4228
31.3099
33.3301
34.1679
-0.00536986
-0.00434983
-0.00439033
-0.00450679
-0.00445736
-0.00450299
-0.00451459
-0.00452465
-0.0045286
-0.00454201
-0.00455712
-0.00456992
-0.00458277
-0.00459694
-0.00461321
-0.00463253
-0.00465127
-0.00466756
-0.00468021
-0.0046874
-0.00469093
-0.00468846
-0.00467927
-0.0046617
-0.00463576
-0.0046004
-0.00455075
-0.00448162
-0.00439094
-0.00427393
-0.00412167
-0.00392069
-0.00366005
-0.0033266
-0.00290794
-0.00238235
-0.00171447
-0.000869265
0.000191438
0.00151955
0.00318377
0.00526956
0.00788324
0.0111461
0.0152103
0.0202877
0.0266343
0.0345569
0.04442
0.0567075
0.072023
0.0911408
0.114944
0.144555
0.181535
0.227426
0.284778
0.356217
0.445276
0.556136
0.693964
0.865747
1.07915
1.34418
1.67282
2.0804
2.58464
3.20674
3.97207
4.90974
6.0528
7.43693
9.09821
11.0694
13.3735
16.0152
18.9695
22.167
25.4809
28.721
31.6532
33.6982
34.5393
-0.00533146
-0.00414225
-0.00419399
-0.00430106
-0.0042521
-0.00429592
-0.00430893
-0.00432517
-0.0043254
-0.00433774
-0.00435117
-0.00436115
-0.00437347
-0.00438769
-0.00440415
-0.0044235
-0.0044421
-0.00445846
-0.00447109
-0.00447837
-0.00448198
-0.00447969
-0.00447072
-0.00445322
-0.00442708
-0.00439141
-0.00434156
-0.00427227
-0.0041813
-0.00406389
-0.00391097
-0.00370931
-0.00344802
-0.00311384
-0.00269401
-0.00216671
-0.00149662
-0.000648886
0.000414892
0.00174719
0.00341673
0.00550864
0.00813001
0.0114022
0.0154784
0.0205718
0.0269373
0.0348842
0.0447773
0.0570981
0.0724665
0.0916497
0.115535
0.145174
0.182242
0.228374
0.285926
0.357599
0.446974
0.558268
0.696888
0.868933
1.08317
1.34936
1.67941
2.08884
2.59557
3.22108
3.99095
4.93459
6.08571
7.48069
9.15646
11.1469
13.4762
16.1504
19.1457
22.3931
25.7651
29.0689
32.0616
34.1395
34.9853
-0.00512616
-0.00474096
-0.00459574
-0.00474542
-0.00467349
-0.00471352
-0.00471465
-0.0047234
-0.00472733
-0.00474115
-0.00475604
-0.00476902
-0.00478126
-0.00479556
-0.00481222
-0.00483174
-0.00484985
-0.00486571
-0.00487818
-0.00488541
-0.00488906
-0.00488687
-0.00487804
-0.00486061
-0.00483426
-0.00479829
-0.00474838
-0.00467911
-0.00458792
-0.0044702
-0.00431689
-0.0041149
-0.00385338
-0.00351911
-0.00309872
-0.00257023
-0.00189885
-0.00104987
1.55457e-05
0.00135031
0.00302317
0.00511857
0.00774399
0.011021
0.0151036
0.0202066
0.0265822
0.0345422
0.0444493
0.0567856
0.0721866
0.0914003
0.115314
0.145091
0.182237
0.228514
0.286209
0.357994
0.447553
0.559092
0.697959
0.870585
1.08544
1.35236
1.68396
2.0951
2.60398
3.23249
4.00654
4.9557
6.11458
7.52037
9.21104
11.2219
13.5788
16.2898
19.3326
22.6393
26.0821
29.4665
32.5339
34.6577
35.5017
-0.00516003
-0.00411712
-0.00404856
-0.00416806
-0.00410268
-0.00414043
-0.00414728
-0.00415719
-0.00416325
-0.00417531
-0.00418826
-0.00419371
-0.00420373
-0.00421842
-0.00423558
-0.00425504
-0.00427261
-0.00428833
-0.00430099
-0.00430852
-0.00431238
-0.00431051
-0.00430208
-0.0042849
-0.00425856
-0.00422254
-0.00417268
-0.0041034
-0.00401203
-0.00389412
-0.00374042
-0.00353825
-0.00327685
-0.00294282
-0.00252214
-0.00199281
-0.00132061
-0.000470984
0.000595371
0.00193196
0.00360734
0.00570523
0.0083332
0.011613
0.0157003
0.0208104
0.0271934
0.0351651
0.0450755
0.0573947
0.0728135
0.0920397
0.115977
0.145813
0.182999
0.229343
0.287104
0.359039
0.44874
0.560471
0.699577
0.872626
1.08798
1.35562
1.68815
2.10049
2.61115
3.24209
4.01985
4.97392
6.14013
7.55664
9.26246
11.2948
13.6816
16.4332
19.5302
22.9056
26.4324
29.9158
33.0699
35.2306
36.1025
-0.00488945
-0.00533422
-0.00471127
-0.00494658
-0.00482462
-0.00485295
-0.00485118
-0.00485938
-0.0048628
-0.00487328
-0.00488638
-0.00489819
-0.00491028
-0.00492465
-0.00494205
-0.00496191
-0.00498014
-0.00499602
-0.00500856
-0.00501616
-0.00502017
-0.00501857
-0.00501042
-0.00499342
-0.00496703
-0.00493096
-0.00488129
-0.00481225
-0.0047208
-0.00460269
-0.00444899
-0.00424701
-0.00398615
-0.00365288
-0.00323251
-0.00270294
-0.00203084
-0.00118189
-0.000116082
0.0012206
0.00289629
0.00499363
0.00762021
0.0108997
0.0149888
0.0200996
0.0264794
0.0344452
0.0443654
0.0567225
0.0721467
0.0913768
0.115327
0.145193
0.182399
0.228777
0.286568
0.358555
0.448322
0.560144
0.699383
0.872646
1.08826
1.35632
1.68939
2.10262
2.61457
3.24748
4.02806
4.98801
6.16111
7.58842
9.30996
11.3652
13.7843
16.5808
19.7388
23.1924
26.8163
30.4168
33.6393
35.5827
36.7868
-0.00485545
-0.00441807
-0.00399221
-0.00417224
-0.00407108
-0.00410304
-0.00409538
-0.00409529
-0.00409495
-0.00410088
-0.00410931
-0.00411815
-0.00412962
-0.00414366
-0.00416156
-0.00418151
-0.00420011
-0.00421614
-0.00422867
-0.00423646
-0.00424061
-0.00423932
-0.00423162
-0.004215
-0.00418879
-0.00415285
-0.00410342
-0.00403452
-0.003943
-0.00382484
-0.00367115
-0.00346955
-0.00320954
-0.00287741
-0.00245759
-0.00192812
-0.0012567
-0.00040899
0.000655647
0.00199167
0.00366658
0.00576231
0.00838602
0.0116631
0.0157521
0.0208605
0.0272345
0.0351927
0.0451105
0.0574721
0.0728878
0.0921049
0.116046
0.145908
0.183109
0.22949
0.287282
0.359194
0.448953
0.560768
0.699985
0.873477
1.08928
1.35764
1.69116
2.10516
2.61832
3.25325
4.03709
5.00172
6.18188
7.61841
9.35606
11.4358
13.8899
16.7354
19.9613
23.5015
27.2331
30.9726
34.2803
36.2311
37.5555
-0.00498512
-0.00565221
-0.00475027
-0.00503123
-0.00488464
-0.00490685
-0.00490276
-0.00490788
-0.0049114
-0.00491975
-0.0049308
-0.00494236
-0.00495531
-0.00497052
-0.00498963
-0.00501021
-0.00502934
-0.00504565
-0.00505851
-0.00506688
-0.00507147
-0.00507079
-0.0050636
-0.00504743
-0.0050215
-0.00498576
-0.0049367
-0.00486824
-0.00477673
-0.00465836
-0.00450477
-0.00430382
-0.00404493
-0.00371411
-0.00329507
-0.00276584
-0.0020954
-0.00124944
-0.000186439
0.00114837
0.00282201
0.00491555
0.00753532
0.0108084
0.0148953
0.0199987
0.0263638
0.0343105
0.0442173
0.0565702
0.0719701
0.0911641
0.11508
0.144913
0.182081
0.228413
0.286134
0.3581
0.447816
0.559573
0.698701
0.872331
1.08821
1.3567
1.69051
2.1051
2.61921
3.25587
4.04282
5.01255
6.19861
7.64675
9.40266
11.5116
14.0049
16.9075
20.2108
23.8579
27.716
31.5752
34.9598
36.9882
38.3685
-0.00531977
-0.00471835
-0.00412812
-0.00436377
-0.00422718
-0.00424022
-0.0042254
-0.00422083
-0.00421699
-0.00421971
-0.00422639
-0.00423495
-0.00424628
-0.00426113
-0.00428064
-0.00430099
-0.00431966
-0.0043357
-0.00434865
-0.00435725
-0.00436208
-0.00436183
-0.00435523
-0.00433961
-0.00431407
-0.00427869
-0.0042301
-0.00416202
-0.00407059
-0.00395228
-0.00379912
-0.00359911
-0.00334174
-0.00301278
-0.00259508
-0.00206698
-0.00139866
-0.000555622
0.000504263
0.00183587
0.00350571
0.00559412
0.00820642
0.0114705
0.0155484
0.0206386
0.0269855
0.0349098
0.0447902
0.057113
0.072474
0.0916175
0.115471
0.14523
0.182309
0.228527
0.286116
0.357966
0.4475
0.559035
0.697909
0.871314
1.08692
1.35513
1.68872
2.10325
2.61752
3.25481
4.04337
5.01551
6.20774
7.66525
9.43379
11.5632
14.0909
17.0441
20.4183
24.1634
28.1438
32.124
35.7061
37.7555
39.072
-0.0055938
-0.00569377
-0.00489396
-0.00522255
-0.00507402
-0.00509278
-0.00508523
-0.00508999
-0.0050955
-0.00510555
-0.00511761
-0.00512981
-0.00514345
-0.00515916
-0.00517774
-0.00519758
-0.00521635
-0.00523244
-0.00524521
-0.00525383
-0.00525857
-0.00525842
-0.00525196
-0.00523649
-0.005211
-0.00517576
-0.00512755
-0.00505982
-0.00496843
-0.00485015
-0.00469747
-0.00449856
-0.00424292
-0.00391593
-0.00349994
-0.00297354
-0.00230789
-0.00146847
-0.000412658
0.000914538
0.00257921
0.00466068
0.00726333
0.0105158
0.0145801
0.0196502
0.0259727
0.0338669
0.0437101
0.0559879
0.0712957
0.0903715
0.11414
0.143795
0.180749
0.226814
0.284234
0.355865
0.445128
0.556329
0.694789
0.867807
1.08293
1.3506
1.68363
2.09771
2.61154
3.24883
4.03872
5.01323
6.21069
7.67685
9.45963
11.6107
14.1732
17.1782
20.6291
24.4813
28.5987
32.7408
36.5425
38.7414
40.0361
-0.00567441
-0.00481777
-0.0042797
-0.00448906
-0.00435729
-0.00436732
-0.00435223
-0.00434802
-0.00434519
-0.00434837
-0.00435324
-0.00436162
-0.00437286
-0.00438707
-0.00440364
-0.00442332
-0.00444201
-0.0044583
-0.00447153
-0.00448053
-0.00448565
-0.00448603
-0.00448022
-0.00446535
-0.00444031
-0.00440551
-0.00435788