/*--------------------------------*- C++ -*----------------------------------*\
| =========                 |                                                 |
| \\      /  F ield         | OpenFOAM: The Open Source CFD Toolbox           |
|  \\    /   O peration     | Version:  v1906                                 |
|   \\  /    A nd           | Web:      www.OpenFOAM.com                      |
|    \\/     M anipulation  |                                                 |
\*---------------------------------------------------------------------------*/
FoamFile
{
    version     2.0;
    format      ascii;
    class       volScalarField;
    location    "26.5";
    object      p;
}
// * * * * * * * * * * * * * * * * * * * * * * * * * * * * * * * * * * * * * //

dimensions      [0 2 -2 0 0 0 0];


internalField   nonuniform List<scalar> 
243374
(
-2.76534e-14
-3.98315e-11
-5.94319e-11
-8.24185e-11
-1.0509e-10
-1.27439e-10
-1.49662e-10
-1.71757e-10
-1.93821e-10
-2.15839e-10
-2.37834e-10
-2.5984e-10
-2.81843e-10
-3.03822e-10
-3.25818e-10
-3.47792e-10
-3.69807e-10
-3.91806e-10
-4.13801e-10
-4.35807e-10
-4.57825e-10
-4.79803e-10
-5.01794e-10
-5.23814e-10
-5.45808e-10
-5.67808e-10
-5.8981e-10
-6.11812e-10
-6.33809e-10
-6.55816e-10
-6.77818e-10
-6.99816e-10
-7.21816e-10
-7.43822e-10
-7.65833e-10
-7.87827e-10
-8.09814e-10
-8.31825e-10
-8.53839e-10
-8.75827e-10
-8.97824e-10
-9.19846e-10
-9.41833e-10
-9.63841e-10
-9.8584e-10
-1.00785e-09
-1.02986e-09
-1.05186e-09
-1.07388e-09
-1.09589e-09
-1.11791e-09
-1.13992e-09
-1.16195e-09
-1.18397e-09
-1.20602e-09
-1.22807e-09
-1.25014e-09
-1.27223e-09
-1.29434e-09
-1.3165e-09
-1.33872e-09
-1.36099e-09
-1.38336e-09
-1.40585e-09
-1.42851e-09
-1.45141e-09
-1.47464e-09
-1.4983e-09
-1.52259e-09
-1.54771e-09
-1.57403e-09
-1.6019e-09
-1.63197e-09
-1.66505e-09
-1.70222e-09
-1.7449e-09
-1.79491e-09
-1.8543e-09
-1.9202e-09
-2.02851e-09
-1.385e-11
-4.04585e-11
-5.98033e-11
-8.2593e-11
-1.05185e-10
-1.27507e-10
-1.49707e-10
-1.71802e-10
-1.93834e-10
-2.15857e-10
-2.37867e-10
-2.59856e-10
-2.81839e-10
-3.03831e-10
-3.25821e-10
-3.47831e-10
-3.6982e-10
-3.91811e-10
-4.13829e-10
-4.3581e-10
-4.57809e-10
-4.79839e-10
-5.01822e-10
-5.23806e-10
-5.45825e-10
-5.67826e-10
-5.89823e-10
-6.11822e-10
-6.33821e-10
-6.55818e-10
-6.77827e-10
-6.9983e-10
-7.21831e-10
-7.43831e-10
-7.65837e-10
-7.87833e-10
-8.09838e-10
-8.31834e-10
-8.53841e-10
-8.75844e-10
-8.97843e-10
-9.19847e-10
-9.41848e-10
-9.63855e-10
-9.85844e-10
-1.00786e-09
-1.02987e-09
-1.05187e-09
-1.07389e-09
-1.09591e-09
-1.11791e-09
-1.13993e-09
-1.16195e-09
-1.18399e-09
-1.20602e-09
-1.22809e-09
-1.25014e-09
-1.27223e-09
-1.29434e-09
-1.3165e-09
-1.3387e-09
-1.36097e-09
-1.38334e-09
-1.40585e-09
-1.42849e-09
-1.45139e-09
-1.47464e-09
-1.4983e-09
-1.52261e-09
-1.54778e-09
-1.57411e-09
-1.60208e-09
-1.63226e-09
-1.66552e-09
-1.70289e-09
-1.74581e-09
-1.7961e-09
-1.85589e-09
-1.92331e-09
-2.01713e-09
-3.03089e-11
-4.06145e-11
-6.00319e-11
-8.26856e-11
-1.05226e-10
-1.27518e-10
-1.49689e-10
-1.71791e-10
-1.93847e-10
-2.15855e-10
-2.37843e-10
-2.59847e-10
-2.81838e-10
-3.03824e-10
-3.25814e-10
-3.47802e-10
-3.69803e-10
-3.91807e-10
-4.13793e-10
-4.35808e-10
-4.57819e-10
-4.7978e-10
-5.01796e-10
-5.23828e-10
-5.4581e-10
-5.67807e-10
-5.89816e-10
-6.11805e-10
-6.3381e-10
-6.55808e-10
-6.77805e-10
-6.99813e-10
-7.21825e-10
-7.4383e-10
-7.65821e-10
-7.87822e-10
-8.09819e-10
-8.31825e-10
-8.5384e-10
-8.75824e-10
-8.97838e-10
-9.19844e-10
-9.41835e-10
-9.63832e-10
-9.8585e-10
-1.00784e-09
-1.02985e-09
-1.05188e-09
-1.07386e-09
-1.09586e-09
-1.1179e-09
-1.13992e-09
-1.16195e-09
-1.18396e-09
-1.206e-09
-1.22803e-09
-1.25012e-09
-1.27219e-09
-1.2943e-09
-1.31647e-09
-1.33868e-09
-1.36094e-09
-1.38331e-09
-1.40576e-09
-1.42844e-09
-1.45135e-09
-1.47455e-09
-1.49826e-09
-1.52255e-09
-1.54772e-09
-1.5741e-09
-1.60212e-09
-1.63234e-09
-1.66572e-09
-1.70325e-09
-1.74637e-09
-1.7969e-09
-1.85685e-09
-1.92501e-09
-2.00229e-09
1.2835e-10
-2.09402e-11
-3.80414e-11
-6.00584e-11
-8.27353e-11
-1.0526e-10
-1.2753e-10
-1.49761e-10
-1.71807e-10
-1.9383e-10
-2.15858e-10
-2.37885e-10
-2.59847e-10
-2.81857e-10
-3.03822e-10
-3.25819e-10
-3.47808e-10
-3.6982e-10
-3.91798e-10
-4.13837e-10
-4.35826e-10
-4.57805e-10
-4.7984e-10
-5.01812e-10
-5.23781e-10
-5.45812e-10
-5.67813e-10
-5.89822e-10
-6.11828e-10
-6.33814e-10
-6.55832e-10
-6.77837e-10
-6.99818e-10
-7.21806e-10
-7.43817e-10
-7.65851e-10
-7.87818e-10
-8.09837e-10
-8.31826e-10
-8.5382e-10
-8.75825e-10
-8.97838e-10
-9.19837e-10
-9.41835e-10
-9.63871e-10
-9.85826e-10
-1.00786e-09
-1.02987e-09
-1.05183e-09
-1.07389e-09
-1.09592e-09
-1.11789e-09
-1.1399e-09
-1.16191e-09
-1.18397e-09
-1.206e-09
-1.22809e-09
-1.25012e-09
-1.27221e-09
-1.29432e-09
-1.31643e-09
-1.33865e-09
-1.36091e-09
-1.38325e-09
-1.40577e-09
-1.4284e-09
-1.45128e-09
-1.47454e-09
-1.49817e-09
-1.52251e-09
-1.54769e-09
-1.57408e-09
-1.60211e-09
-1.63245e-09
-1.66585e-09
-1.70349e-09
-1.74676e-09
-1.79749e-09
-1.85777e-09
-1.92922e-09
-2.01048e-09
-2.108e-09
1.16574e-10
-2.87309e-11
-3.90062e-11
-6.01005e-11
-8.27733e-11
-1.05282e-10
-1.27547e-10
-1.49694e-10
-1.71825e-10
-1.93857e-10
-2.15859e-10
-2.37865e-10
-2.59841e-10
-2.81823e-10
-3.03848e-10
-3.25816e-10
-3.4784e-10
-3.69785e-10
-3.91822e-10
-4.13782e-10
-4.35781e-10
-4.57791e-10
-4.79773e-10
-5.01807e-10
-5.23845e-10
-5.45814e-10
-5.67821e-10
-5.8981e-10
-6.11799e-10
-6.33813e-10
-6.55795e-10
-6.77809e-10
-6.99809e-10
-7.2182e-10
-7.43842e-10
-7.65812e-10
-7.87828e-10
-8.0982e-10
-8.31814e-10
-8.53821e-10
-8.75827e-10
-8.9783e-10
-9.19828e-10
-9.41829e-10
-9.63832e-10
-9.85852e-10
-1.00785e-09
-1.02982e-09
-1.0519e-09
-1.07386e-09
-1.09585e-09
-1.1179e-09
-1.13993e-09
-1.16195e-09
-1.18397e-09
-1.20598e-09
-1.228e-09
-1.2501e-09
-1.27215e-09
-1.29426e-09
-1.31647e-09
-1.33862e-09
-1.36089e-09
-1.38324e-09
-1.40569e-09
-1.42832e-09
-1.45124e-09
-1.4744e-09
-1.49811e-09
-1.52242e-09
-1.54759e-09
-1.57398e-09
-1.60205e-09
-1.63234e-09
-1.66586e-09
-1.70357e-09
-1.74692e-09
-1.79778e-09
-1.85826e-09
-1.92909e-09
-2.00524e-09
-2.12116e-09
-2.30594e-09
1.11305e-10
-2.01405e-11
-3.73965e-11
-6.00193e-11
-8.27976e-11
-1.05263e-10
-1.27557e-10
-1.49782e-10
-1.71809e-10
-1.93846e-10
-2.15858e-10
-2.37864e-10
-2.59868e-10
-2.81853e-10
-3.03807e-10
-3.25843e-10
-3.47772e-10
-3.69832e-10
-3.91785e-10
-4.13818e-10
-4.35837e-10
-4.57825e-10
-4.79841e-10
-5.01809e-10
-5.23766e-10
-5.45817e-10
-5.67795e-10
-5.8981e-10
-6.11821e-10
-6.33804e-10
-6.55819e-10
-6.77825e-10
-6.99843e-10
-7.21821e-10
-7.43808e-10
-7.65822e-10
-7.87808e-10
-8.09815e-10
-8.31819e-10
-8.53821e-10
-8.75815e-10
-8.97832e-10
-9.19828e-10
-9.41834e-10
-9.63834e-10
-9.85837e-10
-1.00784e-09
-1.02987e-09
-1.05182e-09
-1.07388e-09
-1.0959e-09
-1.1179e-09
-1.13987e-09
-1.16189e-09
-1.18394e-09
-1.20599e-09
-1.22805e-09
-1.25009e-09
-1.27217e-09
-1.29429e-09
-1.31637e-09
-1.3386e-09
-1.36082e-09
-1.38317e-09
-1.40565e-09
-1.42829e-09
-1.45115e-09
-1.47436e-09
-1.49799e-09
-1.52231e-09
-1.54747e-09
-1.57384e-09
-1.60189e-09
-1.63225e-09
-1.66572e-09
-1.70342e-09
-1.74685e-09
-1.79778e-09
-1.85843e-09
-1.93097e-09
-2.01346e-09
-2.12817e-09
-2.30319e-09
1.06489e-10
-2.49038e-11
-3.80766e-11
-6.00749e-11
-8.27902e-11
-1.05313e-10
-1.27556e-10
-1.49724e-10
-1.71828e-10
-1.93831e-10
-2.15895e-10
-2.37865e-10
-2.5981e-10
-2.81856e-10
-3.03852e-10
-3.25799e-10
-3.47832e-10
-3.69798e-10
-3.9184e-10
-4.13815e-10
-4.35779e-10
-4.5778e-10
-4.79777e-10
-5.01806e-10
-5.23828e-10
-5.4582e-10
-5.67822e-10
-5.89809e-10
-6.11815e-10
-6.33821e-10
-6.55809e-10
-6.77807e-10
-6.99782e-10
-7.21811e-10
-7.43835e-10
-7.65831e-10
-7.8781e-10
-8.09814e-10
-8.31813e-10
-8.53806e-10
-8.75817e-10
-8.97803e-10
-9.19825e-10
-9.41806e-10
-9.63833e-10
-9.85829e-10
-1.00784e-09
-1.02982e-09
-1.0519e-09
-1.07388e-09
-1.09586e-09
-1.11786e-09
-1.13991e-09
-1.16194e-09
-1.18396e-09
-1.20596e-09
-1.22801e-09
-1.25008e-09
-1.27212e-09
-1.29422e-09
-1.3164e-09
-1.33854e-09
-1.3608e-09
-1.38313e-09
-1.40559e-09
-1.42819e-09
-1.45108e-09
-1.47424e-09
-1.49788e-09
-1.52216e-09
-1.54732e-09
-1.57365e-09
-1.60167e-09
-1.63197e-09
-1.66545e-09
-1.70318e-09
-1.74655e-09
-1.79747e-09
-1.85814e-09
-1.93017e-09
-2.00937e-09
-2.1293e-09
-2.30134e-09
1.04548e-10
-2.48783e-11
-3.80656e-11
-6.00589e-11
-8.27913e-11
-1.05268e-10
-1.27574e-10
-1.4974e-10
-1.71824e-10
-1.93877e-10
-2.15836e-10
-2.37867e-10
-2.59878e-10
-2.81813e-10
-3.03821e-10
-3.25834e-10
-3.47773e-10
-3.69803e-10
-3.91784e-10
-4.13788e-10
-4.35832e-10
-4.57829e-10
-4.79832e-10
-5.01802e-10
-5.2379e-10
-5.45785e-10
-5.67796e-10
-5.89816e-10
-6.118e-10
-6.33794e-10
-6.55814e-10
-6.77817e-10
-6.99839e-10
-7.21831e-10
-7.43776e-10
-7.65824e-10
-7.8781e-10
-8.09816e-10
-8.31825e-10
-8.53824e-10
-8.75819e-10
-8.97829e-10
-9.19822e-10
-9.4183e-10
-9.63833e-10
-9.85825e-10
-1.00786e-09
-1.02986e-09
-1.05181e-09
-1.07384e-09
-1.09588e-09
-1.11789e-09
-1.13988e-09
-1.16189e-09
-1.18393e-09
-1.20598e-09
-1.22801e-09
-1.25004e-09
-1.27214e-09
-1.29423e-09
-1.31631e-09
-1.33853e-09
-1.36075e-09
-1.38309e-09
-1.40554e-09
-1.42814e-09
-1.45098e-09
-1.47413e-09
-1.49772e-09
-1.52199e-09
-1.54708e-09
-1.57342e-09
-1.60137e-09
-1.63164e-09
-1.66505e-09
-1.70269e-09
-1.74602e-09
-1.79687e-09
-1.85746e-09
-1.92934e-09
-2.00851e-09
-2.12875e-09
-2.3003e-09
1.05275e-10
-2.04593e-11
-3.74608e-11
-6.0043e-11
-8.27899e-11
-1.05302e-10
-1.27538e-10
-1.49753e-10
-1.71815e-10
-1.93811e-10
-2.15895e-10
-2.37866e-10
-2.59816e-10
-2.81878e-10
-3.03824e-10
-3.25826e-10
-3.47803e-10
-3.69822e-10
-3.91843e-10
-4.13827e-10
-4.35786e-10
-4.57793e-10
-4.79789e-10
-5.01806e-10
-5.23794e-10
-5.45817e-10
-5.67823e-10
-5.898e-10
-6.11832e-10
-6.3383e-10
-6.55813e-10
-6.77809e-10
-6.99799e-10
-7.21789e-10
-7.43867e-10
-7.65816e-10
-7.87815e-10
-8.09815e-10
-8.31821e-10
-8.53798e-10
-8.75825e-10
-8.97823e-10
-9.19822e-10
-9.41824e-10
-9.63832e-10
-9.85842e-10
-1.00783e-09
-1.02984e-09
-1.05187e-09
-1.0739e-09
-1.09586e-09
-1.11787e-09
-1.13989e-09
-1.16192e-09
-1.18393e-09
-1.20595e-09
-1.22799e-09
-1.25005e-09
-1.2721e-09
-1.2942e-09
-1.31636e-09
-1.33849e-09
-1.36073e-09
-1.38303e-09
-1.40544e-09
-1.42805e-09
-1.45088e-09
-1.47401e-09
-1.49762e-09
-1.52178e-09
-1.54685e-09
-1.57311e-09
-1.60102e-09
-1.63119e-09
-1.6645e-09
-1.70205e-09
-1.74525e-09
-1.79594e-09
-1.85636e-09
-1.92871e-09
-2.01146e-09
-2.1268e-09
-2.29973e-09
1.08905e-10
-2.85525e-11
-3.90045e-11
-6.01137e-11
-8.27742e-11
-1.05247e-10
-1.27579e-10
-1.49685e-10
-1.71821e-10
-1.93862e-10
-2.15829e-10
-2.37872e-10
-2.5988e-10
-2.8179e-10
-3.03833e-10
-3.2581e-10
-3.47803e-10
-3.69777e-10
-3.91781e-10
-4.13785e-10
-4.35819e-10
-4.57799e-10
-4.7982e-10
-5.01802e-10
-5.23805e-10
-5.45802e-10
-5.67785e-10
-5.89813e-10
-6.11787e-10
-6.33792e-10
-6.55814e-10
-6.77808e-10
-6.99813e-10
-7.21843e-10
-7.43774e-10
-7.65808e-10
-7.87838e-10
-8.09815e-10
-8.31828e-10
-8.53822e-10
-8.75824e-10
-8.97825e-10
-9.19825e-10
-9.4183e-10
-9.63833e-10
-9.8584e-10
-1.00785e-09
-1.02984e-09
-1.05184e-09
-1.07382e-09
-1.09588e-09
-1.11787e-09
-1.13984e-09
-1.16189e-09
-1.18391e-09
-1.20596e-09
-1.22797e-09
-1.25001e-09
-1.27209e-09
-1.29416e-09
-1.31625e-09
-1.33844e-09
-1.36065e-09
-1.38298e-09
-1.4054e-09
-1.42797e-09
-1.45077e-09
-1.47386e-09
-1.49743e-09
-1.52155e-09
-1.54658e-09
-1.57277e-09
-1.60058e-09
-1.63066e-09
-1.66385e-09
-1.7012e-09
-1.74426e-09
-1.79475e-09
-1.85485e-09
-1.92556e-09
-2.00099e-09
-2.12126e-09
-2.30026e-09
1.21138e-10
-2.11082e-11
-3.80953e-11
-6.00464e-11
-8.27408e-11
-1.05262e-10
-1.27537e-10
-1.4971e-10
-1.71814e-10
-1.93828e-10
-2.15883e-10
-2.37855e-10
-2.5982e-10
-2.81868e-10
-3.03823e-10
-3.25833e-10
-3.47801e-10
-3.69835e-10
-3.91843e-10
-4.13831e-10
-4.35796e-10
-4.57806e-10
-4.79799e-10
-5.01803e-10
-5.23806e-10
-5.45802e-10
-5.67835e-10
-5.89808e-10
-6.11831e-10
-6.33825e-10
-6.55819e-10
-6.77815e-10
-6.99838e-10
-7.21785e-10
-7.43854e-10
-7.65845e-10
-7.878e-10
-8.09828e-10
-8.31838e-10
-8.5382e-10
-8.75838e-10
-8.97825e-10
-9.19851e-10
-9.4183e-10
-9.63857e-10
-9.85834e-10
-1.00785e-09
-1.02986e-09
-1.05184e-09
-1.07388e-09
-1.09586e-09
-1.11788e-09
-1.13992e-09
-1.16189e-09
-1.18391e-09
-1.20593e-09
-1.22798e-09
-1.25001e-09
-1.27207e-09
-1.29416e-09
-1.31629e-09
-1.33842e-09
-1.36064e-09
-1.38291e-09
-1.40533e-09
-1.42787e-09
-1.45065e-09
-1.47376e-09
-1.49725e-09
-1.5214e-09
-1.54627e-09
-1.57238e-09
-1.60009e-09
-1.63003e-09
-1.66306e-09
-1.70024e-09
-1.74305e-09
-1.79327e-09
-1.85303e-09
-1.92398e-09
-2.00506e-09
-2.10882e-09
-2.30353e-09
1.44016e-10
-3.03797e-11
-4.0599e-11
-6.0045e-11
-8.26788e-11
-1.05207e-10
-1.27519e-10
-1.49686e-10
-1.71789e-10
-1.93832e-10
-2.15832e-10
-2.37859e-10
-2.59851e-10
-2.81794e-10
-3.03823e-10
-3.25808e-10
-3.478e-10
-3.69789e-10
-3.9178e-10
-4.13786e-10
-4.35803e-10
-4.57796e-10
-4.79798e-10
-5.01807e-10
-5.238e-10
-5.45809e-10
-5.67788e-10
-5.89805e-10
-6.11802e-10
-6.338e-10
-6.55799e-10
-6.77805e-10
-6.99801e-10
-7.21834e-10
-7.43797e-10
-7.65799e-10
-7.87834e-10
-8.09824e-10
-8.31817e-10
-8.53834e-10
-8.75832e-10
-8.97824e-10
-9.19834e-10
-9.41831e-10
-9.63827e-10
-9.85839e-10
-1.00784e-09
-1.02983e-09
-1.05184e-09
-1.07383e-09
-1.09586e-09
-1.11785e-09
-1.13984e-09
-1.16189e-09
-1.1839e-09
-1.20593e-09
-1.22794e-09
-1.24999e-09
-1.27205e-09
-1.29412e-09
-1.31622e-09
-1.33837e-09
-1.36056e-09
-1.38285e-09
-1.40524e-09
-1.42776e-09
-1.45052e-09
-1.47357e-09
-1.49704e-09
-1.52103e-09
-1.54595e-09
-1.57196e-09
-1.59954e-09
-1.6293e-09
-1.66214e-09
-1.69911e-09
-1.74161e-09
-1.79151e-09
-1.85083e-09
-1.91841e-09
-1.99514e-09
-2.09285e-09
-1.38669e-11
-4.04569e-11
-5.97998e-11
-8.25824e-11
-1.05181e-10
-1.27503e-10
-1.49682e-10
-1.71786e-10
-1.93832e-10
-2.15855e-10
-2.37848e-10
-2.59834e-10
-2.81856e-10
-3.0382e-10
-3.25822e-10
-3.47818e-10
-3.69815e-10
-3.91822e-10
-4.13823e-10
-4.35812e-10
-4.57808e-10
-4.79812e-10
-5.01802e-10
-5.23816e-10
-5.45805e-10
-5.6783e-10
-5.89815e-10
-6.11813e-10
-6.33824e-10
-6.5583e-10
-6.77816e-10
-6.99824e-10
-7.21807e-10
-7.43836e-10
-7.65838e-10
-7.87818e-10
-8.09828e-10
-8.31842e-10
-8.53833e-10
-8.75839e-10
-8.97847e-10
-9.19844e-10
-9.41841e-10
-9.63853e-10
-9.85838e-10
-1.00784e-09
-1.02986e-09
-1.05185e-09
-1.07386e-09
-1.09585e-09
-1.11788e-09
-1.1399e-09
-1.16188e-09
-1.1839e-09
-1.20592e-09
-1.22796e-09
-1.25e-09
-1.27204e-09
-1.29411e-09
-1.31621e-09
-1.33835e-09
-1.36053e-09
-1.3828e-09
-1.4052e-09
-1.42771e-09
-1.4504e-09
-1.47343e-09
-1.49683e-09
-1.52084e-09
-1.5456e-09
-1.57155e-09
-1.599e-09
-1.6286e-09
-1.66124e-09
-1.69793e-09
-1.74008e-09
-1.78961e-09
-1.84867e-09
-1.91538e-09
-2.00846e-09
-8.19369e-14
-3.98299e-11
-5.94372e-11
-8.24054e-11
-1.05072e-10
-1.27433e-10
-1.4964e-10
-1.71753e-10
-1.93807e-10
-2.15827e-10
-2.37843e-10
-2.59839e-10
-2.81796e-10
-3.03812e-10
-3.25819e-10
-3.47791e-10
-3.69803e-10
-3.91792e-10
-4.13793e-10
-4.35794e-10
-4.57801e-10
-4.79791e-10
-5.01812e-10
-5.238e-10
-5.45803e-10
-5.67798e-10
-5.89801e-10
-6.11815e-10
-6.33804e-10
-6.55785e-10
-6.77817e-10
-6.99803e-10
-7.21813e-10
-7.43814e-10
-7.65809e-10
-7.87817e-10
-8.09829e-10
-8.31815e-10
-8.53831e-10
-8.75829e-10
-8.97823e-10
-9.19835e-10
-9.41823e-10
-9.63824e-10
-9.85832e-10
-1.00784e-09
-1.02983e-09
-1.05184e-09
-1.07385e-09
-1.09585e-09
-1.11785e-09
-1.13985e-09
-1.16188e-09
-1.18388e-09
-1.20591e-09
-1.22793e-09
-1.24995e-09
-1.27201e-09
-1.29407e-09
-1.31617e-09
-1.33829e-09
-1.36047e-09
-1.38272e-09
-1.40508e-09
-1.42756e-09
-1.45022e-09
-1.47322e-09
-1.49662e-09
-1.52048e-09
-1.54522e-09
-1.57095e-09
-1.59832e-09
-1.6277e-09
-1.66009e-09
-1.69628e-09
-1.73814e-09
-1.78728e-09
-1.8458e-09
-1.91087e-09
-2.01856e-09
-1.55717e-11
-3.20626e-11
-5.73635e-11
-8.15837e-11
-1.0466e-10
-1.27216e-10
-1.49512e-10
-1.71654e-10
-1.93753e-10
-2.15797e-10
-2.37814e-10
-2.59823e-10
-2.81819e-10
-3.03824e-10
-3.25807e-10
-3.47804e-10
-3.69808e-10
-3.91807e-10
-4.13804e-10
-4.35801e-10
-4.57813e-10
-4.79808e-10
-5.01788e-10
-5.2381e-10
-5.45807e-10
-5.67817e-10
-5.89816e-10
-6.11813e-10
-6.33803e-10
-6.55822e-10
-6.77817e-10
-6.99817e-10
-7.21809e-10
-7.43826e-10
-7.65829e-10
-7.87822e-10
-8.09822e-10
-8.31819e-10
-8.53828e-10
-8.75837e-10
-8.97828e-10
-9.1983e-10
-9.41842e-10
-9.63834e-10
-9.85858e-10
-1.00785e-09
-1.02987e-09
-1.05188e-09
-1.07389e-09
-1.0959e-09
-1.11792e-09
-1.13994e-09
-1.16197e-09
-1.18399e-09
-1.20605e-09
-1.22811e-09
-1.25019e-09
-1.27227e-09
-1.2944e-09
-1.31657e-09
-1.3388e-09
-1.36107e-09
-1.38344e-09
-1.40593e-09
-1.4286e-09
-1.45147e-09
-1.47465e-09
-1.49824e-09
-1.52241e-09
-1.54729e-09
-1.57329e-09
-1.60063e-09
-1.63001e-09
-1.6621e-09
-1.69788e-09
-1.73879e-09
-1.78681e-09
-1.84478e-09
-1.91516e-09
-1.99387e-09
1.45287e-10
-2.37594e-11
-3.36653e-11
-5.79741e-11
-8.1845e-11
-1.04812e-10
-1.27305e-10
-1.49573e-10
-1.71698e-10
-1.93777e-10
-2.15824e-10
-2.37824e-10
-2.59827e-10
-2.81839e-10
-3.03814e-10
-3.25825e-10
-3.47828e-10
-3.69812e-10
-3.91808e-10
-4.13816e-10
-4.35815e-10
-4.57802e-10
-4.79811e-10
-5.01825e-10
-5.23822e-10
-5.45821e-10
-5.67815e-10
-5.89817e-10
-6.11823e-10
-6.33848e-10
-6.55822e-10
-6.77823e-10
-6.9983e-10
-7.21833e-10
-7.43831e-10
-7.6582e-10
-7.87827e-10
-8.09845e-10
-8.31834e-10
-8.53831e-10
-8.75845e-10
-8.97842e-10
-9.1984e-10
-9.41841e-10
-9.63847e-10
-9.85865e-10
-1.00788e-09
-1.02987e-09
-1.05188e-09
-1.07389e-09
-1.09592e-09
-1.11792e-09
-1.13994e-09
-1.16197e-09
-1.18401e-09
-1.20605e-09
-1.22811e-09
-1.25018e-09
-1.2723e-09
-1.29442e-09
-1.31657e-09
-1.33879e-09
-1.36106e-09
-1.38343e-09
-1.40595e-09
-1.4286e-09
-1.4515e-09
-1.47469e-09
-1.49831e-09
-1.52251e-09
-1.54749e-09
-1.57355e-09
-1.60109e-09
-1.63075e-09
-1.66308e-09
-1.69919e-09
-1.74052e-09
-1.78898e-09
-1.84732e-09
-1.91799e-09
-1.99005e-09
-2.06594e-09
1.31282e-10
-1.10437e-11
-3.43388e-11
-5.84044e-11
-8.2025e-11
-1.0489e-10
-1.27347e-10
-1.49573e-10
-1.71706e-10
-1.93783e-10
-2.15807e-10
-2.37849e-10
-2.59832e-10
-2.81807e-10
-3.03842e-10
-3.25813e-10
-3.47787e-10
-3.69809e-10
-3.91812e-10
-4.13804e-10
-4.35808e-10
-4.57818e-10
-4.79806e-10
-5.01794e-10
-5.23811e-10
-5.45806e-10
-5.6782e-10
-5.89814e-10
-6.11809e-10
-6.33791e-10
-6.55825e-10
-6.77824e-10
-6.99797e-10
-7.21819e-10
-7.43817e-10
-7.65846e-10
-7.87836e-10
-8.09793e-10
-8.31828e-10
-8.53837e-10
-8.75832e-10
-8.9782e-10
-9.19842e-10
-9.41847e-10
-9.63844e-10
-9.85844e-10
-1.00785e-09
-1.02987e-09
-1.05188e-09
-1.0739e-09
-1.09588e-09
-1.11792e-09
-1.13993e-09
-1.16196e-09
-1.18399e-09
-1.20603e-09
-1.22811e-09
-1.25017e-09
-1.27224e-09
-1.29438e-09
-1.31653e-09
-1.33878e-09
-1.36105e-09
-1.38341e-09
-1.40591e-09
-1.42858e-09
-1.45145e-09
-1.47469e-09
-1.49832e-09
-1.52253e-09
-1.54756e-09
-1.57373e-09
-1.60139e-09
-1.63113e-09
-1.6637e-09
-1.70024e-09
-1.74201e-09
-1.79099e-09
-1.84976e-09
-1.9209e-09
-2.0068e-09
-2.0711e-09
-2.27169e-09
1.50594e-10
-1.36787e-11
-3.52843e-11
-5.88342e-11
-8.22031e-11
-1.04968e-10
-1.27398e-10
-1.49622e-10
-1.71727e-10
-1.93796e-10
-2.15825e-10
-2.37843e-10
-2.59835e-10
-2.81818e-10
-3.03811e-10
-3.25835e-10
-3.47835e-10
-3.69807e-10
-3.91816e-10
-4.13821e-10
-4.35815e-10
-4.57775e-10
-4.79802e-10
-5.01843e-10
-5.23822e-10
-5.45815e-10
-5.67815e-10
-5.89802e-10
-6.11828e-10
-6.3385e-10
-6.55808e-10
-6.77826e-10
-6.99829e-10
-7.21838e-10
-7.43825e-10
-7.65811e-10
-7.87808e-10
-8.09862e-10
-8.31841e-10
-8.53805e-10
-8.75842e-10
-8.97845e-10
-9.19829e-10
-9.41846e-10
-9.6383e-10
-9.85865e-10
-1.00786e-09
-1.02987e-09
-1.05187e-09
-1.07387e-09
-1.09592e-09
-1.11791e-09
-1.13994e-09
-1.16195e-09
-1.184e-09
-1.20603e-09
-1.2281e-09
-1.25016e-09
-1.27228e-09
-1.2944e-09
-1.31655e-09
-1.33872e-09
-1.36101e-09
-1.3834e-09
-1.40588e-09
-1.42858e-09
-1.45147e-09
-1.47466e-09
-1.49834e-09
-1.52257e-09
-1.54769e-09
-1.57385e-09
-1.6016e-09
-1.63158e-09
-1.66437e-09
-1.70116e-09
-1.74336e-09
-1.79278e-09
-1.85192e-09
-1.92317e-09
-2.00717e-09
-2.02461e-09
-2.28793e-09
1.10771e-10
-9.40882e-12
-3.57234e-11
-5.92114e-11
-8.23879e-11
-1.05062e-10
-1.27448e-10
-1.49671e-10
-1.71749e-10
-1.93827e-10
-2.15849e-10
-2.37862e-10
-2.59836e-10
-2.81846e-10
-3.03842e-10
-3.2582e-10
-3.47785e-10
-3.69811e-10
-3.91822e-10
-4.13812e-10
-4.35807e-10
-4.5784e-10
-4.79809e-10
-5.01796e-10
-5.23829e-10
-5.45812e-10
-5.67821e-10
-5.89813e-10
-6.11822e-10
-6.3381e-10
-6.55831e-10
-6.7782e-10
-6.9983e-10
-7.21815e-10
-7.43819e-10
-7.65839e-10
-7.87853e-10
-8.09811e-10
-8.31836e-10
-8.53848e-10
-8.75842e-10
-8.97821e-10
-9.19854e-10
-9.41847e-10
-9.63844e-10
-9.85861e-10
-1.00786e-09
-1.02985e-09
-1.05188e-09
-1.07389e-09
-1.09589e-09
-1.11793e-09
-1.13992e-09
-1.16196e-09
-1.18398e-09
-1.20605e-09
-1.22809e-09
-1.25015e-09
-1.27223e-09
-1.29437e-09
-1.3165e-09
-1.33874e-09
-1.36101e-09
-1.38337e-09
-1.4059e-09
-1.42853e-09
-1.45141e-09
-1.47466e-09
-1.4983e-09
-1.5226e-09
-1.54768e-09
-1.57398e-09
-1.60182e-09
-1.6318e-09
-1.66483e-09
-1.7019e-09
-1.7444e-09
-1.79429e-09
-1.85383e-09
-1.92576e-09
-2.01416e-09
-2.06712e-09
-2.27304e-09
8.98153e-11
-1.30945e-11
-3.7276e-11
-5.97268e-11
-8.26188e-11
-1.05196e-10
-1.27571e-10
-1.49714e-10
-1.7183e-10
-1.93854e-10
-2.15873e-10
-2.3791e-10
-2.59876e-10
-2.81821e-10
-3.03849e-10
-3.25826e-10
-3.47859e-10
-3.69835e-10
-3.91827e-10
-4.1382e-10
-4.3583e-10
-4.5777e-10
-4.79849e-10
-5.01867e-10
-5.23806e-10
-5.45818e-10
-5.67835e-10
-5.8981e-10
-6.11851e-10
-6.33839e-10
-6.55834e-10
-6.77825e-10
-6.99851e-10
-7.21849e-10
-7.4383e-10
-7.65808e-10
-7.87853e-10
-8.09857e-10
-8.31858e-10
-8.53828e-10
-8.75879e-10
-8.97863e-10
-9.19834e-10
-9.41875e-10
-9.63855e-10
-9.85876e-10
-1.00787e-09
-1.02989e-09
-1.05186e-09
-1.0739e-09
-1.09589e-09
-1.11791e-09
-1.13994e-09
-1.16195e-09
-1.18401e-09
-1.20601e-09
-1.22811e-09
-1.25016e-09
-1.27225e-09
-1.29436e-09
-1.31652e-09
-1.3387e-09
-1.36099e-09
-1.38334e-09
-1.40582e-09
-1.42854e-09
-1.4514e-09
-1.47465e-09
-1.49829e-09
-1.52258e-09
-1.54774e-09
-1.57402e-09
-1.60197e-09
-1.6321e-09
-1.66528e-09
-1.70254e-09
-1.74536e-09
-1.79552e-09
-1.85525e-09
-1.92664e-09
-2.01514e-09
-2.11338e-09
-2.26782e-09
8.03437e-11
-1.65617e-11
-3.82605e-11
-6.00295e-11
-8.27748e-11
-1.05273e-10
-1.27606e-10
-1.49738e-10
-1.7183e-10
-1.93872e-10
-2.15889e-10
-2.37864e-10
-2.59864e-10
-2.81866e-10
-3.03845e-10
-3.25835e-10
-3.47796e-10
-3.69813e-10
-3.91827e-10
-4.13806e-10
-4.35794e-10
-4.57833e-10
-4.79781e-10
-5.01795e-10
-5.23854e-10
-5.45807e-10
-5.67814e-10
-5.89827e-10
-6.11802e-10
-6.33831e-10
-6.55824e-10
-6.77826e-10
-6.99814e-10
-7.21817e-10
-7.43827e-10
-7.65836e-10
-7.8784e-10
-8.09842e-10
-8.31851e-10
-8.53827e-10
-8.75847e-10
-8.97852e-10
-9.1985e-10
-9.41862e-10
-9.63813e-10
-9.85861e-10
-1.00785e-09
-1.02987e-09
-1.0519e-09
-1.07387e-09
-1.09589e-09
-1.11792e-09
-1.13994e-09
-1.16196e-09
-1.18395e-09
-1.20603e-09
-1.22803e-09
-1.25011e-09
-1.27222e-09
-1.29434e-09
-1.31649e-09
-1.33868e-09
-1.36095e-09
-1.38331e-09
-1.40579e-09
-1.42843e-09
-1.45136e-09
-1.47453e-09
-1.49824e-09
-1.52253e-09
-1.5477e-09
-1.57404e-09
-1.60204e-09
-1.63224e-09
-1.66554e-09
-1.70296e-09
-1.74598e-09
-1.79642e-09
-1.85628e-09
-1.92725e-09
-2.01386e-09
-2.12855e-09
-2.26541e-09
5.23708e-11
-1.49693e-11
-3.75723e-11
-6.01628e-11
-8.28497e-11
-1.0534e-10
-1.27633e-10
-1.49767e-10
-1.71847e-10
-1.93889e-10
-2.159e-10
-2.37896e-10
-2.59901e-10
-2.8186e-10
-3.0383e-10
-3.25851e-10
-3.47838e-10
-3.69852e-10
-3.91827e-10
-4.13812e-10
-4.35817e-10
-4.57819e-10
-4.79856e-10
-5.01839e-10
-5.23783e-10
-5.45824e-10
-5.67829e-10
-5.89812e-10
-6.11861e-10
-6.33829e-10
-6.55853e-10
-6.77809e-10
-6.99852e-10
-7.2184e-10
-7.43818e-10
-7.65831e-10
-7.87853e-10
-8.09831e-10
-8.31842e-10
-8.53846e-10
-8.75844e-10
-8.9784e-10
-9.19835e-10
-9.41862e-10
-9.63851e-10
-9.85871e-10
-1.00787e-09
-1.02988e-09
-1.05185e-09
-1.07389e-09
-1.09591e-09
-1.11792e-09
-1.13991e-09
-1.16194e-09
-1.18397e-09
-1.20602e-09
-1.2281e-09
-1.25013e-09
-1.27223e-09
-1.29432e-09
-1.31644e-09
-1.33866e-09
-1.36093e-09
-1.38327e-09
-1.40575e-09
-1.42845e-09
-1.45127e-09
-1.47458e-09
-1.49816e-09
-1.52249e-09
-1.54763e-09
-1.57403e-09
-1.60204e-09
-1.6323e-09
-1.66567e-09
-1.70325e-09
-1.7464e-09
-1.79699e-09
-1.85714e-09
-1.92922e-09
-2.01655e-09
-2.16441e-09
-2.26661e-09
4.98795e-11
-1.85101e-11
-3.8527e-11
-6.02938e-11
-8.29209e-11
-1.05372e-10
-1.27663e-10
-1.49762e-10
-1.7186e-10
-1.9389e-10
-2.15906e-10
-2.37845e-10
-2.59888e-10
-2.81861e-10
-3.03896e-10
-3.2581e-10
-3.4786e-10
-3.69791e-10
-3.91812e-10
-4.13821e-10
-4.35814e-10
-4.57802e-10
-4.79792e-10
-5.01795e-10
-5.23853e-10
-5.45817e-10
-5.67798e-10
-5.89833e-10
-6.11801e-10
-6.33835e-10
-6.55819e-10
-6.77836e-10
-6.99812e-10
-7.21826e-10
-7.43844e-10
-7.65801e-10
-7.87843e-10
-8.09827e-10
-8.31837e-10
-8.53836e-10
-8.7584e-10
-8.97834e-10
-9.1984e-10
-9.41859e-10
-9.63839e-10
-9.85858e-10
-1.00784e-09
-1.02985e-09
-1.05191e-09
-1.07387e-09
-1.09588e-09
-1.11789e-09
-1.13995e-09
-1.16196e-09
-1.18398e-09
-1.206e-09
-1.228e-09
-1.25006e-09
-1.27219e-09
-1.2943e-09
-1.31647e-09
-1.33863e-09
-1.36089e-09
-1.38324e-09
-1.40569e-09
-1.42833e-09
-1.45124e-09
-1.4744e-09
-1.4981e-09
-1.52236e-09
-1.54757e-09
-1.57392e-09
-1.60197e-09
-1.63226e-09
-1.66567e-09
-1.70331e-09
-1.74657e-09
-1.79727e-09
-1.85754e-09
-1.92899e-09
-2.01434e-09
-2.16341e-09
-2.26723e-09
4.88883e-11
-1.57867e-11
-3.76588e-11
-6.02897e-11
-8.29692e-11
-1.05396e-10
-1.27657e-10
-1.49823e-10
-1.71849e-10
-1.93903e-10
-2.15865e-10
-2.37916e-10
-2.59899e-10
-2.8186e-10
-3.03802e-10
-3.25862e-10
-3.47822e-10
-3.6986e-10
-3.91808e-10
-4.13807e-10
-4.35806e-10
-4.57859e-10
-4.79836e-10
-5.01809e-10
-5.23796e-10
-5.45793e-10
-5.67854e-10
-5.89812e-10
-6.11846e-10
-6.3382e-10
-6.55832e-10
-6.77805e-10
-6.99859e-10
-7.21845e-10
-7.43812e-10
-7.6581e-10
-7.87844e-10
-8.09825e-10
-8.31833e-10
-8.53828e-10
-8.75837e-10
-8.9783e-10
-9.1984e-10
-9.41848e-10
-9.63825e-10
-9.85853e-10
-1.00785e-09
-1.02989e-09
-1.05184e-09
-1.07387e-09
-1.09591e-09
-1.11791e-09
-1.1399e-09
-1.16192e-09
-1.18392e-09
-1.20601e-09
-1.22809e-09
-1.2501e-09
-1.27219e-09
-1.29427e-09
-1.31637e-09
-1.33861e-09
-1.36085e-09
-1.38319e-09
-1.40564e-09
-1.42833e-09
-1.45113e-09
-1.47439e-09
-1.49797e-09
-1.52228e-09
-1.54739e-09
-1.57379e-09
-1.60181e-09
-1.63213e-09
-1.66554e-09
-1.7032e-09
-1.74649e-09
-1.79727e-09
-1.85766e-09
-1.93005e-09
-2.01717e-09
-2.16405e-09
-2.26766e-09
4.79377e-11
-1.72747e-11
-3.81642e-11
-6.0348e-11
-8.29676e-11
-1.05418e-10
-1.2768e-10
-1.49757e-10
-1.71867e-10
-1.93899e-10
-2.15921e-10
-2.37867e-10
-2.59881e-10
-2.81861e-10
-3.03897e-10
-3.258e-10
-3.47882e-10
-3.69783e-10
-3.9183e-10
-4.13833e-10
-4.35807e-10
-4.57776e-10
-4.79799e-10
-5.0184e-10
-5.23838e-10
-5.45844e-10
-5.67781e-10
-5.89831e-10
-6.11827e-10
-6.33838e-10
-6.55829e-10
-6.77831e-10
-6.99801e-10
-7.21815e-10
-7.43846e-10
-7.65804e-10
-7.8785e-10
-8.09816e-10
-8.31826e-10
-8.53827e-10
-8.75836e-10
-8.97821e-10
-9.19836e-10
-9.41845e-10
-9.63839e-10
-9.85849e-10
-1.00785e-09
-1.02984e-09
-1.05191e-09
-1.07389e-09
-1.09585e-09
-1.11789e-09
-1.13995e-09
-1.16195e-09
-1.18399e-09
-1.20598e-09
-1.22796e-09
-1.25006e-09
-1.27216e-09
-1.29426e-09
-1.31641e-09
-1.33853e-09
-1.36081e-09
-1.38314e-09
-1.40558e-09
-1.42821e-09
-1.45109e-09
-1.47423e-09
-1.49787e-09
-1.52211e-09
-1.54725e-09
-1.57359e-09
-1.60163e-09
-1.63183e-09
-1.66527e-09
-1.70291e-09
-1.74621e-09
-1.79694e-09
-1.85734e-09
-1.92935e-09
-2.01554e-09
-2.16332e-09
-2.26789e-09
4.79027e-11
-1.72885e-11
-3.8166e-11
-6.03347e-11
-8.29753e-11
-1.05406e-10
-1.27677e-10
-1.49809e-10
-1.7186e-10
-1.939e-10
-2.15873e-10
-2.37892e-10
-2.59919e-10
-2.81851e-10
-3.03801e-10
-3.25833e-10
-3.47838e-10
-3.69849e-10
-3.91772e-10
-4.13794e-10
-4.35826e-10
-4.57873e-10
-4.79836e-10
-5.0179e-10
-5.23815e-10
-5.45785e-10
-5.67846e-10
-5.89822e-10
-6.11809e-10
-6.33813e-10
-6.55804e-10
-6.77825e-10
-6.99847e-10
-7.21811e-10
-7.43824e-10
-7.65834e-10
-7.87812e-10
-8.09826e-10
-8.3182e-10
-8.53835e-10
-8.75824e-10
-8.9784e-10
-9.19832e-10
-9.41846e-10
-9.63834e-10
-9.85851e-10
-1.00784e-09
-1.02986e-09
-1.05185e-09
-1.07383e-09
-1.0959e-09
-1.1179e-09
-1.13989e-09
-1.16192e-09
-1.1839e-09
-1.20598e-09
-1.22807e-09
-1.25006e-09
-1.27214e-09
-1.29423e-09
-1.3163e-09
-1.33855e-09
-1.36076e-09
-1.3831e-09
-1.40553e-09
-1.42816e-09
-1.45095e-09
-1.47415e-09
-1.49768e-09
-1.52196e-09
-1.54705e-09
-1.57333e-09
-1.6013e-09
-1.6315e-09
-1.66486e-09
-1.70243e-09
-1.74559e-09
-1.79633e-09
-1.85667e-09
-1.92856e-09
-2.01474e-09
-2.16246e-09
-2.26696e-09
4.88627e-11
-1.59725e-11
-3.77167e-11
-6.03025e-11
-8.29496e-11
-1.05409e-10
-1.2765e-10
-1.49796e-10
-1.71833e-10
-1.93892e-10
-2.15906e-10
-2.37885e-10
-2.59881e-10
-2.81883e-10
-3.03858e-10
-3.25812e-10
-3.47878e-10
-3.69813e-10
-3.91815e-10
-4.13837e-10
-4.35799e-10
-4.57787e-10
-4.79788e-10
-5.01839e-10
-5.23836e-10
-5.45845e-10
-5.67799e-10
-5.89823e-10
-6.11807e-10
-6.33839e-10
-6.55858e-10
-6.7783e-10
-6.99813e-10
-7.2181e-10
-7.4382e-10
-7.65827e-10
-7.87867e-10
-8.09823e-10
-8.31817e-10
-8.53823e-10
-8.75833e-10
-8.97839e-10
-9.19835e-10
-9.41843e-10
-9.63832e-10
-9.85853e-10
-1.00784e-09
-1.02985e-09
-1.05189e-09
-1.0739e-09
-1.09586e-09
-1.11788e-09
-1.13994e-09
-1.16193e-09
-1.18397e-09
-1.20596e-09
-1.22794e-09
-1.25007e-09
-1.27212e-09
-1.29421e-09
-1.31637e-09
-1.33848e-09
-1.36073e-09
-1.38301e-09
-1.40546e-09
-1.42805e-09
-1.45089e-09
-1.474e-09
-1.49758e-09
-1.52175e-09
-1.54679e-09
-1.57306e-09
-1.60092e-09
-1.63103e-09
-1.66431e-09
-1.70174e-09
-1.74491e-09
-1.7954e-09
-1.85551e-09
-1.92787e-09
-2.01496e-09
-2.16146e-09
-2.26557e-09
4.97792e-11
-1.84315e-11
-3.85131e-11
-6.0293e-11
-8.29099e-11
-1.05369e-10
-1.27649e-10
-1.49775e-10
-1.71846e-10
-1.93881e-10
-2.15907e-10
-2.37866e-10
-2.59892e-10
-2.81837e-10
-3.03821e-10
-3.25815e-10
-3.4783e-10
-3.69828e-10
-3.91782e-10
-4.13793e-10
-4.3582e-10
-4.57849e-10
-4.79832e-10
-5.01799e-10
-5.23795e-10
-5.45793e-10
-5.6783e-10
-5.89829e-10
-6.11833e-10
-6.33809e-10
-6.55766e-10
-6.77835e-10
-6.99819e-10
-7.21859e-10
-7.43816e-10
-7.65833e-10
-7.87827e-10
-8.09828e-10
-8.31815e-10
-8.53847e-10
-8.7583e-10
-8.97841e-10
-9.19839e-10