/*--------------------------------*- C++ -*----------------------------------*\
| =========                 |                                                 |
| \\      /  F ield         | OpenFOAM: The Open Source CFD Toolbox           |
|  \\    /   O peration     | Version:  v1906                                 |
|   \\  /    A nd           | Web:      www.OpenFOAM.com                      |
|    \\/     M anipulation  |                                                 |
\*---------------------------------------------------------------------------*/
FoamFile
{
    version     2.0;
    format      ascii;
    class       volScalarField;
    location    "55.5";
    object      p;
}
// * * * * * * * * * * * * * * * * * * * * * * * * * * * * * * * * * * * * * //

dimensions      [0 2 -2 0 0 0 0];


internalField   nonuniform List<scalar> 
243374
(
-2.18189e-14
-3.92916e-11
-5.90625e-11
-8.20447e-11
-1.04693e-10
-1.27025e-10
-1.49206e-10
-1.71275e-10
-1.93299e-10
-2.1528e-10
-2.37238e-10
-2.59199e-10
-2.81153e-10
-3.03099e-10
-3.25048e-10
-3.46992e-10
-3.68947e-10
-3.90902e-10
-4.12848e-10
-4.3481e-10
-4.56774e-10
-4.78715e-10
-5.00667e-10
-5.22635e-10
-5.44584e-10
-5.66542e-10
-5.885e-10
-6.1045e-10
-6.32408e-10
-6.54368e-10
-6.76325e-10
-6.98277e-10
-7.20235e-10
-7.42193e-10
-7.64152e-10
-7.86109e-10
-8.08056e-10
-8.3002e-10
-8.5198e-10
-8.73929e-10
-8.95884e-10
-9.17849e-10
-9.39798e-10
-9.61757e-10
-9.83711e-10
-1.00567e-09
-1.02763e-09
-1.04959e-09
-1.07154e-09
-1.0935e-09
-1.11547e-09
-1.13743e-09
-1.15939e-09
-1.18136e-09
-1.20334e-09
-1.22533e-09
-1.24733e-09
-1.26935e-09
-1.29139e-09
-1.31348e-09
-1.33563e-09
-1.35786e-09
-1.38021e-09
-1.40273e-09
-1.42549e-09
-1.44859e-09
-1.47218e-09
-1.49648e-09
-1.52174e-09
-1.54839e-09
-1.57706e-09
-1.6084e-09
-1.64364e-09
-1.6842e-09
-1.73196e-09
-1.78956e-09
-1.86064e-09
-1.94907e-09
-2.0532e-09
-2.21673e-09
-1.26218e-11
-4.01289e-11
-5.9433e-11
-8.22131e-11
-1.04785e-10
-1.27089e-10
-1.49251e-10
-1.71311e-10
-1.93311e-10
-2.15294e-10
-2.37257e-10
-2.59208e-10
-2.81153e-10
-3.03102e-10
-3.25052e-10
-3.47006e-10
-3.6896e-10
-3.90905e-10
-4.12867e-10
-4.34813e-10
-4.56765e-10
-4.78738e-10
-5.00688e-10
-5.22628e-10
-5.44594e-10
-5.6655e-10
-5.88504e-10
-6.10462e-10
-6.32417e-10
-6.54371e-10
-6.7633e-10
-6.98289e-10
-7.20242e-10
-7.42198e-10
-7.64159e-10
-7.86111e-10
-8.08073e-10
-8.30024e-10
-8.51981e-10
-8.7394e-10
-8.95895e-10
-9.1785e-10
-9.39807e-10
-9.61767e-10
-9.83713e-10
-1.00568e-09
-1.02764e-09
-1.04959e-09
-1.07155e-09
-1.09351e-09
-1.11547e-09
-1.13743e-09
-1.15939e-09
-1.18137e-09
-1.20334e-09
-1.22534e-09
-1.24733e-09
-1.26935e-09
-1.2914e-09
-1.31349e-09
-1.33563e-09
-1.35786e-09
-1.38022e-09
-1.40275e-09
-1.42551e-09
-1.44863e-09
-1.47225e-09
-1.49657e-09
-1.52191e-09
-1.54864e-09
-1.57741e-09
-1.60899e-09
-1.64441e-09
-1.68529e-09
-1.73364e-09
-1.79186e-09
-1.86355e-09
-1.95295e-09
-2.05951e-09
-2.20899e-09
-2.96518e-11
-4.03147e-11
-5.96811e-11
-8.23066e-11
-1.04827e-10
-1.27105e-10
-1.49245e-10
-1.71309e-10
-1.93321e-10
-2.15294e-10
-2.37245e-10
-2.59202e-10
-2.81154e-10
-3.03102e-10
-3.25047e-10
-3.46996e-10
-3.68941e-10
-3.90904e-10
-4.12848e-10
-4.34808e-10
-4.56771e-10
-4.78702e-10
-5.00665e-10
-5.22644e-10
-5.44585e-10
-5.6654e-10
-5.88501e-10
-6.10448e-10
-6.32408e-10
-6.54362e-10
-6.76318e-10
-6.98275e-10
-7.20239e-10
-7.42197e-10
-7.64144e-10
-7.86105e-10
-8.08055e-10
-8.30019e-10
-8.51981e-10
-8.73927e-10
-8.95889e-10
-9.17848e-10
-9.39799e-10
-9.61749e-10
-9.83716e-10
-1.00567e-09
-1.02762e-09
-1.04959e-09
-1.07153e-09
-1.09349e-09
-1.11546e-09
-1.13743e-09
-1.15939e-09
-1.18136e-09
-1.20333e-09
-1.22531e-09
-1.24732e-09
-1.26933e-09
-1.29137e-09
-1.31347e-09
-1.33562e-09
-1.35785e-09
-1.38021e-09
-1.40272e-09
-1.4255e-09
-1.44864e-09
-1.47226e-09
-1.49662e-09
-1.52198e-09
-1.54878e-09
-1.57764e-09
-1.60931e-09
-1.6449e-09
-1.68602e-09
-1.73464e-09
-1.79334e-09
-1.86558e-09
-1.9554e-09
-2.06333e-09
-2.1957e-09
1.26106e-10
-2.31229e-11
-3.7932e-11
-5.97009e-11
-8.2362e-11
-1.04865e-10
-1.27126e-10
-1.49296e-10
-1.71324e-10
-1.9332e-10
-2.15299e-10
-2.37267e-10
-2.59208e-10
-2.81158e-10
-3.03096e-10
-3.25053e-10
-3.46998e-10
-3.68963e-10
-3.90898e-10
-4.12868e-10
-4.34823e-10
-4.56765e-10
-4.7874e-10
-5.00683e-10
-5.22616e-10
-5.44589e-10
-5.66546e-10
-5.88503e-10
-6.10465e-10
-6.32413e-10
-6.54375e-10
-6.76336e-10
-6.98288e-10
-7.20232e-10
-7.42188e-10
-7.64164e-10
-7.86103e-10
-8.08071e-10
-8.30019e-10
-8.5197e-10
-8.73928e-10
-8.95889e-10
-9.17844e-10
-9.398e-10
-9.61772e-10
-9.83706e-10
-1.00568e-09
-1.02764e-09
-1.04957e-09
-1.07155e-09
-1.09351e-09
-1.11546e-09
-1.13741e-09
-1.15937e-09
-1.18136e-09
-1.20333e-09
-1.22533e-09
-1.24732e-09
-1.26935e-09
-1.29139e-09
-1.31346e-09
-1.33561e-09
-1.35784e-09
-1.38019e-09
-1.40273e-09
-1.42551e-09
-1.44863e-09
-1.47229e-09
-1.49665e-09
-1.52205e-09
-1.5489e-09
-1.57781e-09
-1.60956e-09
-1.64538e-09
-1.68662e-09
-1.73547e-09
-1.79452e-09
-1.86721e-09
-1.95764e-09
-2.06926e-09
-2.20134e-09
-2.3425e-09
1.16123e-10
-2.82469e-11
-3.86101e-11
-5.97504e-11
-8.24013e-11
-1.0489e-10
-1.27144e-10
-1.49265e-10
-1.71334e-10
-1.93331e-10
-2.15302e-10
-2.37258e-10
-2.59198e-10
-2.8115e-10
-3.03111e-10
-3.25047e-10
-3.47007e-10
-3.68939e-10
-3.9091e-10
-4.12848e-10
-4.34798e-10
-4.56758e-10
-4.78697e-10
-5.00673e-10
-5.2265e-10
-5.44589e-10
-5.66547e-10
-5.88498e-10
-6.10447e-10
-6.32412e-10
-6.54362e-10
-6.76318e-10
-6.98269e-10
-7.20237e-10
-7.42205e-10
-7.64142e-10
-7.86111e-10
-8.08059e-10
-8.3001e-10
-8.5197e-10
-8.7393e-10
-8.95882e-10
-9.17839e-10
-9.39794e-10
-9.61748e-10
-9.83718e-10
-1.00567e-09
-1.02761e-09
-1.0496e-09
-1.07153e-09
-1.09348e-09
-1.11546e-09
-1.13743e-09
-1.1594e-09
-1.18136e-09
-1.20332e-09
-1.22529e-09
-1.24731e-09
-1.26931e-09
-1.29136e-09
-1.31347e-09
-1.3356e-09
-1.35783e-09
-1.38019e-09
-1.4027e-09
-1.42547e-09
-1.44863e-09
-1.47226e-09
-1.49665e-09
-1.52206e-09
-1.54893e-09
-1.57787e-09
-1.60971e-09
-1.64554e-09
-1.68697e-09
-1.736e-09
-1.79527e-09
-1.86825e-09
-1.95905e-09
-2.07067e-09
-2.20068e-09
-2.36351e-09
-2.62213e-09
1.10737e-10
-2.24135e-11
-3.73113e-11
-5.9677e-11
-8.24239e-11
-1.04887e-10
-1.27155e-10
-1.49309e-10
-1.71331e-10
-1.93331e-10
-2.15301e-10
-2.3726e-10
-2.59215e-10
-2.81156e-10
-3.03091e-10
-3.25059e-10
-3.46987e-10
-3.68961e-10
-3.90893e-10
-4.12859e-10
-4.34824e-10
-4.56774e-10
-4.78741e-10
-5.00678e-10
-5.22612e-10
-5.44588e-10
-5.6654e-10
-5.88499e-10
-6.1046e-10
-6.32408e-10
-6.54368e-10
-6.76332e-10
-6.98297e-10
-7.20238e-10
-7.42178e-10
-7.64152e-10
-7.86098e-10
-8.08057e-10
-8.30014e-10
-8.51971e-10
-8.7392e-10
-8.95886e-10
-9.17839e-10
-9.398e-10
-9.61754e-10
-9.83709e-10
-1.00567e-09
-1.02763e-09
-1.04956e-09
-1.07154e-09
-1.09351e-09
-1.11546e-09
-1.1374e-09
-1.15936e-09
-1.18135e-09
-1.20333e-09
-1.22532e-09
-1.2473e-09
-1.26933e-09
-1.29137e-09
-1.31343e-09
-1.33559e-09
-1.35781e-09
-1.38016e-09
-1.40269e-09
-1.42546e-09
-1.44859e-09
-1.47224e-09
-1.49661e-09
-1.52203e-09
-1.5489e-09
-1.57786e-09
-1.60971e-09
-1.64562e-09
-1.68709e-09
-1.73618e-09
-1.79557e-09
-1.86871e-09
-1.95976e-09
-2.07298e-09
-2.20855e-09
-2.37296e-09
-2.6236e-09
1.0622e-10
-2.52532e-11
-3.77806e-11
-5.97288e-11
-8.24271e-11
-1.04921e-10
-1.27154e-10
-1.49288e-10
-1.7134e-10
-1.93326e-10
-2.15313e-10
-2.3726e-10
-2.59192e-10
-2.81161e-10
-3.03114e-10
-3.25044e-10
-3.47005e-10
-3.68946e-10
-3.90917e-10
-4.1286e-10
-4.34799e-10
-4.56753e-10
-4.78703e-10
-5.00675e-10
-5.22643e-10
-5.44593e-10
-5.66548e-10
-5.88498e-10
-6.10456e-10
-6.32416e-10
-6.54368e-10
-6.76318e-10
-6.98264e-10
-7.2023e-10
-7.42209e-10
-7.64154e-10
-7.86101e-10
-8.08056e-10
-8.30008e-10
-8.51957e-10
-8.73921e-10
-8.95863e-10
-9.17837e-10
-9.39779e-10
-9.61752e-10
-9.83706e-10
-1.00566e-09
-1.02761e-09
-1.0496e-09
-1.07154e-09
-1.09349e-09
-1.11545e-09
-1.13742e-09
-1.15939e-09
-1.18135e-09
-1.20331e-09
-1.22529e-09
-1.2473e-09
-1.2693e-09
-1.29134e-09
-1.31344e-09
-1.33556e-09
-1.35779e-09
-1.38013e-09
-1.40265e-09
-1.42541e-09
-1.44855e-09
-1.47217e-09
-1.49655e-09
-1.52194e-09
-1.54881e-09
-1.57775e-09
-1.60958e-09
-1.64546e-09
-1.68693e-09
-1.73603e-09
-1.79542e-09
-1.86855e-09
-1.95963e-09
-2.0725e-09
-2.20575e-09
-2.37546e-09
-2.62486e-09
1.04675e-10
-2.5205e-11
-3.77666e-11
-5.97129e-11
-8.24268e-11
-1.04889e-10
-1.27165e-10
-1.49292e-10
-1.71338e-10
-1.93341e-10
-2.15293e-10
-2.3726e-10
-2.59216e-10
-2.81143e-10
-3.03097e-10
-3.25057e-10
-3.46987e-10
-3.68949e-10
-3.90891e-10
-4.12846e-10
-4.34821e-10
-4.56775e-10
-4.7873e-10
-5.00674e-10
-5.22621e-10
-5.44578e-10
-5.66539e-10
-5.88502e-10
-6.10448e-10
-6.32403e-10
-6.54366e-10
-6.76327e-10
-6.98291e-10
-7.20244e-10
-7.42172e-10
-7.64149e-10
-7.86099e-10
-8.08058e-10
-8.30017e-10
-8.51977e-10
-8.73922e-10
-8.95886e-10
-9.17835e-10
-9.39798e-10
-9.61751e-10
-9.83703e-10
-1.00567e-09
-1.02763e-09
-1.04956e-09
-1.07153e-09
-1.0935e-09
-1.11546e-09
-1.1374e-09
-1.15936e-09
-1.18134e-09
-1.20332e-09
-1.2253e-09
-1.24728e-09
-1.2693e-09
-1.29134e-09
-1.3134e-09
-1.33555e-09
-1.35776e-09
-1.38011e-09
-1.40262e-09
-1.42537e-09
-1.44848e-09
-1.4721e-09
-1.49644e-09
-1.52182e-09
-1.54865e-09
-1.57755e-09
-1.60932e-09
-1.64514e-09
-1.68652e-09
-1.73552e-09
-1.7948e-09
-1.86779e-09
-1.9587e-09
-2.0712e-09
-2.20436e-09
-2.3749e-09
-2.6242e-09
1.05413e-10
-2.26294e-11
-3.73667e-11
-5.96968e-11
-8.24219e-11
-1.04915e-10
-1.27144e-10
-1.49295e-10
-1.71333e-10
-1.93316e-10
-2.15312e-10
-2.37258e-10
-2.59196e-10
-2.81166e-10
-3.03103e-10
-3.25051e-10
-3.46996e-10
-3.68955e-10
-3.9092e-10
-4.12867e-10
-4.34801e-10
-4.56755e-10
-4.78713e-10
-5.00676e-10
-5.2263e-10
-5.44593e-10
-5.66551e-10
-5.88495e-10
-6.10463e-10
-6.32421e-10
-6.54369e-10
-6.76321e-10
-6.98273e-10
-7.20225e-10
-7.42213e-10
-7.64147e-10
-7.86101e-10
-8.08058e-10
-8.30012e-10
-8.51954e-10
-8.73925e-10
-8.95881e-10
-9.17836e-10
-9.39791e-10
-9.61751e-10
-9.83712e-10
-1.00566e-09
-1.02762e-09
-1.04959e-09
-1.07155e-09
-1.09349e-09
-1.11545e-09
-1.13742e-09
-1.15938e-09
-1.18134e-09
-1.2033e-09
-1.22529e-09
-1.24728e-09
-1.26928e-09
-1.29132e-09
-1.31341e-09
-1.33553e-09
-1.35774e-09
-1.38006e-09
-1.40256e-09
-1.42531e-09
-1.4484e-09
-1.472e-09
-1.49631e-09
-1.52164e-09
-1.54842e-09
-1.57724e-09
-1.60893e-09
-1.64462e-09
-1.68584e-09
-1.73467e-09
-1.7937e-09
-1.86639e-09
-1.95697e-09
-2.06995e-09
-2.20507e-09
-2.37166e-09
-2.62139e-09
1.08747e-10
-2.81418e-11
-3.86015e-11
-5.976e-11
-8.2403e-11
-1.04864e-10
-1.27155e-10
-1.49262e-10
-1.71331e-10
-1.93333e-10
-2.15287e-10
-2.37261e-10
-2.59213e-10
-2.81134e-10
-3.03102e-10
-3.25047e-10
-3.46994e-10
-3.68939e-10
-3.90889e-10
-4.12843e-10
-4.34815e-10
-4.56765e-10
-4.78722e-10
-5.00673e-10
-5.2263e-10
-5.44583e-10
-5.66532e-10
-5.885e-10
-6.10446e-10
-6.32399e-10
-6.54363e-10
-6.76321e-10
-6.98279e-10
-7.20245e-10
-7.42174e-10
-7.64142e-10
-7.86116e-10
-8.08058e-10
-8.30018e-10
-8.51973e-10
-8.73923e-10
-8.95884e-10
-9.17837e-10
-9.39795e-10
-9.61749e-10
-9.8371e-10
-1.00567e-09
-1.02762e-09
-1.04957e-09
-1.07152e-09
-1.09349e-09
-1.11544e-09
-1.13739e-09
-1.15936e-09
-1.18133e-09
-1.20331e-09
-1.22528e-09
-1.24726e-09
-1.26927e-09
-1.2913e-09
-1.31336e-09
-1.33549e-09
-1.3577e-09
-1.38002e-09
-1.40251e-09
-1.42524e-09
-1.44831e-09
-1.47187e-09
-1.49614e-09
-1.52142e-09
-1.54813e-09
-1.57686e-09
-1.60841e-09
-1.64393e-09
-1.68494e-09
-1.73347e-09
-1.79218e-09
-1.86443e-09
-1.95441e-09
-2.0655e-09
-2.19422e-09
-2.36345e-09
-2.61741e-09
1.19991e-10
-2.3258e-11
-3.79536e-11
-5.96882e-11
-8.23649e-11
-1.04868e-10
-1.27123e-10
-1.49269e-10
-1.71323e-10
-1.93314e-10
-2.15306e-10
-2.37252e-10
-2.59196e-10
-2.81165e-10
-3.031e-10
-3.25055e-10
-3.46995e-10
-3.6896e-10
-3.90921e-10
-4.12869e-10
-4.34806e-10
-4.56765e-10
-4.78719e-10
-5.00674e-10
-5.22632e-10
-5.44587e-10
-5.66554e-10
-5.88499e-10
-6.10464e-10
-6.32422e-10
-6.54374e-10
-6.76324e-10
-6.98286e-10
-7.20226e-10
-7.42207e-10
-7.64161e-10
-7.86095e-10
-8.08066e-10
-8.30027e-10
-8.5197e-10
-8.73934e-10
-8.95885e-10
-9.17853e-10
-9.39796e-10
-9.61762e-10
-9.83708e-10
-1.00566e-09
-1.02763e-09
-1.04958e-09
-1.07155e-09
-1.09349e-09
-1.11545e-09
-1.13742e-09
-1.15937e-09
-1.18133e-09
-1.20329e-09
-1.22528e-09
-1.24726e-09
-1.26926e-09
-1.2913e-09
-1.31337e-09
-1.33548e-09
-1.35767e-09
-1.37998e-09
-1.40245e-09
-1.42516e-09
-1.44821e-09
-1.47174e-09
-1.49595e-09
-1.52121e-09
-1.54778e-09
-1.57637e-09
-1.60778e-09
-1.64308e-09
-1.68381e-09
-1.73198e-09
-1.79024e-09
-1.86189e-09
-1.95116e-09
-2.06166e-09
-2.19272e-09
-2.34552e-09
-2.61674e-09
1.46332e-10
-2.97061e-11
-4.03082e-11
-5.969e-11
-8.22992e-11
-1.04808e-10
-1.271e-10
-1.49239e-10
-1.71304e-10
-1.93312e-10
-2.15279e-10
-2.37252e-10
-2.59203e-10
-2.81134e-10
-3.03098e-10
-3.25045e-10
-3.46991e-10
-3.6894e-10
-3.90888e-10
-4.12844e-10
-4.34809e-10
-4.5676e-10
-4.78713e-10
-5.00676e-10
-5.22627e-10
-5.44586e-10
-5.66533e-10
-5.88496e-10
-6.1045e-10
-6.32401e-10
-6.54357e-10
-6.76319e-10
-6.98275e-10
-7.20243e-10
-7.42181e-10
-7.64138e-10
-7.8611e-10
-8.08062e-10
-8.30009e-10
-8.51979e-10
-8.73929e-10
-8.95882e-10
-9.1784e-10
-9.39794e-10
-9.61746e-10
-9.83708e-10
-1.00566e-09
-1.02761e-09
-1.04957e-09
-1.07152e-09
-1.09349e-09
-1.11543e-09
-1.13739e-09
-1.15936e-09
-1.18132e-09
-1.20329e-09
-1.22526e-09
-1.24724e-09
-1.26925e-09
-1.29126e-09
-1.31333e-09
-1.33544e-09
-1.35763e-09
-1.37992e-09
-1.40238e-09
-1.42507e-09
-1.44808e-09
-1.47156e-09
-1.49573e-09
-1.52075e-09
-1.54738e-09
-1.57583e-09
-1.60703e-09
-1.64206e-09
-1.68242e-09
-1.73014e-09
-1.78791e-09
-1.85877e-09
-1.94714e-09
-2.05362e-09
-2.1843e-09
-2.31768e-09
-1.26458e-11
-4.01387e-11
-5.94311e-11
-8.22033e-11
-1.0478e-10
-1.27079e-10
-1.49231e-10
-1.71299e-10
-1.93308e-10
-2.15289e-10
-2.37245e-10
-2.59196e-10
-2.81158e-10
-3.03097e-10
-3.25051e-10
-3.47003e-10
-3.68954e-10
-3.90911e-10
-4.12864e-10
-4.34813e-10
-4.56766e-10
-4.78724e-10
-5.00673e-10
-5.22635e-10
-5.44586e-10
-5.66552e-10
-5.88502e-10
-6.10457e-10
-6.32419e-10
-6.54377e-10
-6.76326e-10
-6.98283e-10
-7.20232e-10
-7.42202e-10
-7.64158e-10
-7.86103e-10
-8.08064e-10
-8.30029e-10
-8.51977e-10
-8.73936e-10
-8.95895e-10
-9.17848e-10
-9.39801e-10
-9.61761e-10
-9.83708e-10
-1.00566e-09
-1.02763e-09
-1.04958e-09
-1.07154e-09
-1.09348e-09
-1.11545e-09
-1.13741e-09
-1.15936e-09
-1.18132e-09
-1.20328e-09
-1.22526e-09
-1.24725e-09
-1.26924e-09
-1.29126e-09
-1.31332e-09
-1.33542e-09
-1.3576e-09
-1.37988e-09
-1.40232e-09
-1.42498e-09
-1.44796e-09
-1.47141e-09
-1.4955e-09
-1.52063e-09
-1.54695e-09
-1.57524e-09
-1.60623e-09
-1.64096e-09
-1.68093e-09
-1.7281e-09
-1.78542e-09
-1.85538e-09
-1.94303e-09
-2.04773e-09
-2.19518e-09
-8.27607e-14
-3.9299e-11
-5.90667e-11
-8.20333e-11
-1.04675e-10
-1.27014e-10
-1.49191e-10
-1.71269e-10
-1.93287e-10
-2.15268e-10
-2.37241e-10
-2.59195e-10
-2.8113e-10
-3.03093e-10
-3.25046e-10
-3.46989e-10
-3.68946e-10
-3.90894e-10
-4.12851e-10
-4.34804e-10
-4.56763e-10
-4.78711e-10
-5.00678e-10
-5.22629e-10
-5.44585e-10
-5.66538e-10
-5.88496e-10
-6.10458e-10
-6.32404e-10
-6.54354e-10
-6.76326e-10
-6.98274e-10
-7.20237e-10
-7.42187e-10
-7.64142e-10
-7.86104e-10
-8.08064e-10
-8.30013e-10
-8.51977e-10
-8.73929e-10
-8.95882e-10
-9.17842e-10
-9.39792e-10
-9.61744e-10
-9.83704e-10
-1.00566e-09
-1.02761e-09
-1.04957e-09
-1.07152e-09
-1.09348e-09
-1.11543e-09
-1.13739e-09
-1.15935e-09
-1.18131e-09
-1.20328e-09
-1.22524e-09
-1.24722e-09
-1.26922e-09
-1.29123e-09
-1.31328e-09
-1.33537e-09
-1.35753e-09
-1.3798e-09
-1.40223e-09
-1.42486e-09
-1.4478e-09
-1.47118e-09
-1.49522e-09
-1.52016e-09
-1.5464e-09
-1.57449e-09
-1.6052e-09
-1.63956e-09
-1.67902e-09
-1.7256e-09
-1.78168e-09
-1.85077e-09
-1.93709e-09
-2.03922e-09
-2.20073e-09
-1.59985e-11
-3.15481e-11
-5.69656e-11
-8.11837e-11
-1.04261e-10
-1.26793e-10
-1.49059e-10
-1.71179e-10
-1.93234e-10
-2.15239e-10
-2.37217e-10
-2.59181e-10
-2.81134e-10
-3.03095e-10
-3.25041e-10
-3.46992e-10
-3.68948e-10
-3.90901e-10
-4.12852e-10
-4.34806e-10
-4.56767e-10
-4.78721e-10
-5.00667e-10
-5.22632e-10
-5.44584e-10
-5.66547e-10
-5.88501e-10
-6.10453e-10
-6.32404e-10
-6.5437e-10
-6.76324e-10
-6.9828e-10
-7.20228e-10
-7.42196e-10
-7.64153e-10
-7.86106e-10
-8.08059e-10
-8.30015e-10
-8.51975e-10
-8.73934e-10
-8.95886e-10
-9.17843e-10
-9.39802e-10
-9.61754e-10
-9.83718e-10
-1.00567e-09
-1.02763e-09
-1.04959e-09
-1.07155e-09
-1.09351e-09
-1.11547e-09
-1.13743e-09
-1.1594e-09
-1.18137e-09
-1.20335e-09
-1.22534e-09
-1.24734e-09
-1.26935e-09
-1.2914e-09
-1.31349e-09
-1.33563e-09
-1.35784e-09
-1.38015e-09
-1.40263e-09
-1.42532e-09
-1.4483e-09
-1.47173e-09
-1.49576e-09
-1.5207e-09
-1.5468e-09
-1.5747e-09
-1.60493e-09
-1.63857e-09
-1.6769e-09
-1.72147e-09
-1.77561e-09
-1.84184e-09
-1.92638e-09
-2.03273e-09
-2.15937e-09
1.44896e-10
-2.301e-11
-3.33132e-11
-5.75973e-11
-8.14535e-11
-1.04408e-10
-1.2688e-10
-1.49118e-10
-1.71219e-10
-1.93258e-10
-2.15259e-10
-2.37226e-10
-2.59185e-10
-2.81149e-10
-3.03091e-10
-3.2505e-10
-3.47008e-10
-3.68951e-10
-3.90903e-10
-4.12863e-10
-4.34815e-10
-4.56762e-10
-4.78722e-10
-5.00686e-10
-5.22637e-10
-5.44595e-10
-5.66546e-10
-5.88502e-10
-6.10463e-10
-6.32427e-10
-6.5437e-10
-6.76328e-10
-6.98287e-10
-7.20247e-10
-7.42196e-10
-7.64145e-10
-7.86107e-10
-8.08075e-10
-8.30024e-10
-8.51976e-10
-8.7394e-10
-8.95896e-10
-9.17847e-10
-9.39802e-10
-9.61759e-10
-9.83724e-10
-1.00568e-09
-1.02763e-09
-1.04959e-09
-1.07155e-09
-1.09352e-09
-1.11547e-09
-1.13744e-09
-1.1594e-09
-1.18138e-09
-1.20336e-09
-1.22534e-09
-1.24734e-09
-1.26937e-09
-1.29142e-09
-1.3135e-09
-1.33564e-09
-1.35785e-09
-1.38018e-09
-1.40267e-09
-1.42538e-09
-1.44841e-09
-1.47188e-09
-1.496e-09
-1.52102e-09
-1.54743e-09
-1.57534e-09
-1.60593e-09
-1.64002e-09
-1.67897e-09
-1.72487e-09
-1.77976e-09
-1.84714e-09
-1.93243e-09
-2.0399e-09
-2.16106e-09
-2.27008e-09
1.30825e-10
-1.2511e-11
-3.40053e-11
-5.80229e-11
-8.16354e-11
-1.04488e-10
-1.26923e-10
-1.49128e-10
-1.7123e-10
-1.93266e-10
-2.15255e-10
-2.37238e-10
-2.59189e-10
-2.81134e-10
-3.03105e-10
-3.25044e-10
-3.46987e-10
-3.68949e-10
-3.90903e-10
-4.1285e-10
-4.34809e-10
-4.56771e-10
-4.7872e-10
-5.00666e-10
-5.22632e-10
-5.44582e-10
-5.66549e-10
-5.88501e-10
-6.1045e-10
-6.32401e-10
-6.54372e-10
-6.76328e-10
-6.98273e-10
-7.20232e-10
-7.42193e-10
-7.64159e-10
-7.86113e-10
-8.08045e-10
-8.30018e-10
-8.51981e-10
-8.73932e-10
-8.95879e-10
-9.17848e-10
-9.39805e-10
-9.61758e-10
-9.83712e-10
-1.00567e-09
-1.02763e-09
-1.04959e-09
-1.07156e-09
-1.0935e-09
-1.11547e-09
-1.13743e-09
-1.1594e-09
-1.18137e-09
-1.20335e-09
-1.22534e-09
-1.24734e-09
-1.26935e-09
-1.2914e-09
-1.31348e-09
-1.33565e-09
-1.35786e-09
-1.38019e-09
-1.40269e-09
-1.42542e-09
-1.44846e-09
-1.47199e-09
-1.49615e-09
-1.52124e-09
-1.54762e-09
-1.5759e-09
-1.60675e-09
-1.64119e-09
-1.68064e-09
-1.72709e-09
-1.78309e-09
-1.8517e-09
-1.93809e-09
-2.04684e-09
-2.18085e-09
-2.28298e-09
-2.52122e-09
1.47313e-10
-1.34503e-11
-3.49591e-11
-5.84539e-11
-8.18176e-11
-1.04573e-10
-1.26978e-10
-1.49173e-10
-1.71252e-10
-1.93279e-10
-2.15271e-10
-2.37243e-10
-2.59196e-10
-2.81142e-10
-3.03091e-10
-3.25058e-10
-3.47011e-10
-3.6895e-10
-3.90906e-10
-4.12867e-10
-4.34814e-10
-4.5675e-10
-4.78719e-10
-5.00695e-10
-5.22636e-10
-5.44592e-10
-5.66545e-10
-5.88494e-10
-6.10469e-10
-6.32428e-10
-6.54367e-10
-6.7633e-10
-6.98287e-10
-7.20248e-10
-7.42195e-10
-7.64147e-10
-7.861e-10
-8.08085e-10
-8.30028e-10
-8.51966e-10
-8.73942e-10
-8.95899e-10
-9.17842e-10
-9.39804e-10
-9.61756e-10
-9.83724e-10
-1.00568e-09
-1.02764e-09
-1.04959e-09
-1.07154e-09
-1.09352e-09
-1.11547e-09
-1.13744e-09
-1.1594e-09
-1.18138e-09
-1.20335e-09
-1.22534e-09
-1.24734e-09
-1.26937e-09
-1.29142e-09
-1.3135e-09
-1.33563e-09
-1.35786e-09
-1.38021e-09
-1.40271e-09
-1.42547e-09
-1.44853e-09
-1.47207e-09
-1.49632e-09
-1.52148e-09
-1.54805e-09
-1.57641e-09
-1.6075e-09
-1.64231e-09
-1.68225e-09
-1.72933e-09
-1.78623e-09
-1.85585e-09
-1.94322e-09
-2.05276e-09
-2.18733e-09
-2.23836e-09
-2.55227e-09
1.0599e-10
-9.29757e-12
-3.52283e-11
-5.88287e-11
-8.20037e-11
-1.04667e-10
-1.27029e-10
-1.49214e-10
-1.71273e-10
-1.93303e-10
-2.15286e-10
-2.37252e-10
-2.59197e-10
-2.81154e-10
-3.03107e-10
-3.25048e-10
-3.46988e-10
-3.68949e-10
-3.90909e-10
-4.12856e-10
-4.34809e-10
-4.56782e-10
-4.7872e-10
-5.00667e-10
-5.22642e-10
-5.44587e-10
-5.66548e-10
-5.88503e-10
-6.10452e-10
-6.32409e-10
-6.54375e-10
-6.76326e-10
-6.98284e-10
-7.20234e-10
-7.42193e-10
-7.64157e-10
-7.86121e-10
-8.08054e-10
-8.30023e-10
-8.51986e-10
-8.73936e-10
-8.95883e-10
-9.17855e-10
-9.39804e-10
-9.61757e-10
-9.83719e-10
-1.00567e-09
-1.02762e-09
-1.0496e-09
-1.07155e-09
-1.0935e-09
-1.11548e-09
-1.13743e-09
-1.1594e-09
-1.18136e-09
-1.20336e-09
-1.22533e-09
-1.24733e-09
-1.26935e-09
-1.2914e-09
-1.31348e-09
-1.33564e-09
-1.35787e-09
-1.38021e-09
-1.40274e-09
-1.42547e-09
-1.44856e-09
-1.47216e-09
-1.49642e-09
-1.52166e-09
-1.54824e-09
-1.57685e-09
-1.60813e-09
-1.64319e-09
-1.68356e-09
-1.73114e-09
-1.78833e-09
-1.85918e-09
-1.94771e-09
-2.05913e-09
-2.19792e-09
-2.29125e-09
-2.56973e-09
8.87665e-11
-1.2141e-11
-3.66756e-11
-5.93395e-11
-8.22326e-11
-1.04795e-10
-1.27135e-10
-1.49258e-10
-1.71333e-10
-1.93327e-10
-2.15305e-10
-2.37282e-10
-2.59219e-10
-2.81146e-10
-3.03108e-10
-3.25055e-10
-3.47021e-10
-3.68966e-10
-3.90911e-10
-4.12865e-10
-4.3482e-10
-4.56748e-10
-4.78744e-10
-5.00706e-10
-5.2263e-10
-5.44592e-10
-5.66555e-10
-5.88497e-10
-6.10481e-10
-6.32427e-10
-6.54376e-10
-6.76331e-10
-6.98302e-10
-7.20253e-10
-7.42198e-10
-7.64148e-10
-7.86119e-10
-8.08084e-10
-8.30034e-10
-8.51975e-10
-8.73958e-10
-8.95904e-10
-9.1784e-10
-9.39819e-10
-9.61768e-10
-9.83728e-10
-1.00569e-09
-1.02764e-09
-1.04958e-09
-1.07156e-09
-1.09351e-09
-1.11547e-09
-1.13743e-09
-1.1594e-09
-1.18138e-09
-1.20334e-09
-1.22535e-09
-1.24734e-09
-1.26936e-09
-1.29141e-09
-1.31349e-09
-1.33563e-09
-1.35787e-09
-1.38021e-09
-1.40273e-09
-1.42551e-09
-1.44861e-09
-1.47222e-09
-1.49652e-09
-1.52182e-09
-1.54853e-09
-1.5772e-09
-1.6087e-09
-1.64402e-09
-1.68476e-09
-1.73282e-09
-1.79079e-09
-1.86227e-09
-1.95151e-09
-2.06313e-09
-2.20463e-09
-2.34934e-09
-2.57379e-09
8.02668e-11
-1.57866e-11
-3.78139e-11
-5.96588e-11
-8.23887e-11
-1.04873e-10
-1.27172e-10
-1.49284e-10
-1.7134e-10
-1.93342e-10
-2.15316e-10
-2.3726e-10
-2.59214e-10
-2.81169e-10
-3.03116e-10
-3.25056e-10
-3.46995e-10
-3.68948e-10
-3.90912e-10
-4.12859e-10
-4.34806e-10
-4.56779e-10
-4.78707e-10
-5.00666e-10
-5.2265e-10
-5.44588e-10
-5.66543e-10
-5.88506e-10
-6.10448e-10
-6.32416e-10
-6.54373e-10
-6.76333e-10
-6.98275e-10
-7.20236e-10
-7.42198e-10
-7.64155e-10
-7.86112e-10
-8.08069e-10
-8.3003e-10
-8.51974e-10
-8.73938e-10
-8.95895e-10
-9.17853e-10
-9.39811e-10
-9.61745e-10
-9.83719e-10
-1.00567e-09
-1.02763e-09
-1.0496e-09
-1.07154e-09
-1.0935e-09
-1.11547e-09
-1.13743e-09
-1.1594e-09
-1.18135e-09
-1.20335e-09
-1.22531e-09
-1.24731e-09
-1.26934e-09
-1.29139e-09
-1.31348e-09
-1.33563e-09
-1.35785e-09
-1.38021e-09
-1.40273e-09
-1.42549e-09
-1.44862e-09
-1.47223e-09
-1.49658e-09
-1.52192e-09
-1.54869e-09
-1.57749e-09
-1.6091e-09
-1.64463e-09
-1.68563e-09
-1.73405e-09
-1.79252e-09
-1.8646e-09
-1.95427e-09
-2.06564e-09
-2.20651e-09
-2.37255e-09
-2.57929e-09
5.19867e-11
-1.43896e-11
-3.7228e-11
-5.97965e-11
-8.24742e-11
-1.04939e-10
-1.27203e-10
-1.49314e-10
-1.71357e-10
-1.93357e-10
-2.15324e-10
-2.37285e-10
-2.59235e-10
-2.81164e-10
-3.03105e-10
-3.25066e-10
-3.47018e-10
-3.68971e-10
-3.90913e-10
-4.12862e-10
-4.34816e-10
-4.56769e-10
-4.78746e-10
-5.00696e-10
-5.22626e-10
-5.44593e-10
-5.66554e-10
-5.88501e-10
-6.10481e-10
-6.32421e-10
-6.54382e-10
-6.76324e-10
-6.98303e-10
-7.20252e-10
-7.42192e-10
-7.64155e-10
-7.86122e-10
-8.08066e-10
-8.30025e-10
-8.51987e-10
-8.73938e-10
-8.95892e-10
-9.17843e-10
-9.39812e-10
-9.61769e-10
-9.83726e-10
-1.00568e-09
-1.02764e-09
-1.04958e-09
-1.07155e-09
-1.09352e-09
-1.11547e-09
-1.13742e-09
-1.15939e-09
-1.18136e-09
-1.20334e-09
-1.22534e-09
-1.24733e-09
-1.26935e-09
-1.29139e-09
-1.31346e-09
-1.33562e-09
-1.35785e-09
-1.3802e-09
-1.40272e-09
-1.42551e-09
-1.44861e-09
-1.47228e-09
-1.4966e-09
-1.52199e-09
-1.54879e-09
-1.57768e-09
-1.60939e-09
-1.64507e-09
-1.68626e-09
-1.73497e-09
-1.79382e-09
-1.8663e-09
-1.95654e-09
-2.06923e-09
-2.21168e-09
-2.42535e-09
-2.5885e-09
4.97781e-11
-1.70926e-11
-3.80741e-11
-5.99417e-11
-8.25479e-11
-1.04977e-10
-1.27233e-10
-1.49315e-10
-1.71368e-10
-1.93359e-10
-2.15333e-10
-2.37255e-10
-2.59223e-10
-2.81168e-10
-3.03133e-10
-3.25048e-10
-3.47015e-10
-3.68945e-10
-3.90908e-10
-4.12865e-10
-4.34813e-10
-4.56764e-10
-4.7871e-10
-5.00672e-10
-5.22651e-10
-5.44594e-10
-5.66536e-10
-5.88509e-10
-6.10451e-10
-6.32421e-10
-6.54375e-10
-6.76334e-10
-6.98272e-10
-7.20241e-10
-7.42209e-10
-7.64141e-10
-7.86115e-10
-8.08064e-10
-8.30023e-10
-8.5198e-10
-8.73935e-10
-8.95889e-10
-9.17846e-10
-9.39811e-10
-9.6176e-10
-9.8372e-10
-1.00566e-09
-1.02762e-09
-1.0496e-09
-1.07154e-09
-1.09349e-09
-1.11546e-09
-1.13744e-09
-1.1594e-09
-1.18136e-09
-1.20333e-09
-1.2253e-09
-1.24729e-09
-1.26933e-09
-1.29138e-09
-1.31347e-09
-1.3356e-09
-1.35783e-09
-1.38018e-09
-1.4027e-09
-1.42547e-09
-1.44861e-09
-1.47223e-09
-1.49661e-09
-1.52198e-09
-1.54885e-09
-1.57775e-09
-1.60954e-09
-1.64531e-09
-1.68663e-09
-1.73552e-09
-1.79464e-09
-1.86739e-09
-1.9579e-09
-2.07028e-09
-2.2118e-09
-2.4278e-09
-2.59519e-09
4.88915e-11
-1.55259e-11
-3.74205e-11
-5.99423e-11
-8.25932e-11
-1.05004e-10
-1.27236e-10
-1.49355e-10
-1.71367e-10
-1.9337e-10
-2.15314e-10
-2.37291e-10
-2.59239e-10
-2.81165e-10
-3.03097e-10
-3.25068e-10
-3.47012e-10
-3.68973e-10
-3.90903e-10
-4.12859e-10
-4.34813e-10
-4.56788e-10
-4.78741e-10
-5.0068e-10
-5.22627e-10
-5.4458e-10
-5.66563e-10
-5.88503e-10
-6.10474e-10
-6.32417e-10
-6.54374e-10
-6.76325e-10
-6.98304e-10
-7.20251e-10
-7.42187e-10
-7.64152e-10
-7.86115e-10
-8.08063e-10
-8.30021e-10
-8.51975e-10
-8.73933e-10
-8.95887e-10
-9.17845e-10
-9.39804e-10
-9.61751e-10
-9.83717e-10
-1.00568e-09
-1.02764e-09
-1.04957e-09
-1.07154e-09
-1.09352e-09
-1.11547e-09
-1.13742e-09
-1.15938e-09
-1.18134e-09
-1.20334e-09
-1.22534e-09
-1.24731e-09
-1.26933e-09
-1.29136e-09
-1.31343e-09
-1.3356e-09
-1.35781e-09
-1.38016e-09
-1.40268e-09
-1.42546e-09
-1.44856e-09
-1.47223e-09
-1.49656e-09
-1.52197e-09
-1.5488e-09
-1.57774e-09
-1.60954e-09
-1.64538e-09
-1.68676e-09
-1.73576e-09
-1.79495e-09
-1.86787e-09
-1.95858e-09
-2.07181e-09
-2.2136e-09
-2.43057e-09
-2.59937e-09
4.80169e-11
-1.65552e-11
-3.78053e-11
-6.00036e-11
-8.26031e-11
-1.05026e-10
-1.27253e-10
-1.49322e-10
-1.71375e-10
-1.9337e-10
-2.15338e-10
-2.37269e-10
-2.59225e-10
-2.81174e-10
-3.03132e-10
-3.25045e-10
-3.47025e-10
-3.68944e-10
-3.90916e-10
-4.12871e-10
-4.34811e-10
-4.56752e-10
-4.78713e-10
-5.00688e-10
-5.2265e-10
-5.44605e-10
-5.66533e-10
-5.8851e-10
-6.10463e-10
-6.32424e-10
-6.54381e-10
-6.76331e-10
-6.98273e-10
-7.20238e-10
-7.42211e-10
-7.64144e-10
-7.86124e-10
-8.08056e-10
-8.30017e-10
-8.51973e-10
-8.73934e-10
-8.95878e-10
-9.17842e-10
-9.39803e-10
-9.61761e-10
-9.83715e-10
-1.00567e-09
-1.02762e-09
-1.04961e-09
-1.07155e-09
-1.09349e-09
-1.11546e-09
-1.13744e-09
-1.15939e-09
-1.18136e-09
-1.20332e-09
-1.22528e-09
-1.24729e-09
-1.26931e-09
-1.29135e-09
-1.31345e-09
-1.33556e-09
-1.35779e-09
-1.38013e-09
-1.40264e-09
-1.42541e-09
-1.44853e-09
-1.47214e-09
-1.49651e-09
-1.52187e-09
-1.54871e-09
-1.57763e-09
-1.60943e-09
-1.64521e-09
-1.68661e-09
-1.73559e-09
-1.79482e-09
-1.86771e-09
-1.95841e-09
-2.0714e-09
-2.21335e-09
-2.43064e-09
-2.60077e-09
4.79869e-11
-1.65486e-11
-3.78061e-11
-5.999e-11
-8.26087e-11
-1.05015e-10
-1.2725e-10
-1.49353e-10
-1.71371e-10
-1.93368e-10
-2.1532e-10
-2.37283e-10
-2.5924e-10
-2.81163e-10
-3.03095e-10
-3.25057e-10
-3.47014e-10
-3.68968e-10
-3.90888e-10
-4.12852e-10
-4.34819e-10
-4.56794e-10
-4.78738e-10
-5.00673e-10
-5.22629e-10
-5.44577e-10
-5.66558e-10
-5.88505e-10
-6.1046e-10
-6.32413e-10
-6.54365e-10
-6.76331e-10
-6.98296e-10
-7.20237e-10
-7.42196e-10
-7.64161e-10
-7.86096e-10
-8.08063e-10
-8.30015e-10
-8.51979e-10
-8.73925e-10
-8.95891e-10
-9.17839e-10
-9.39805e-10
-9.61756e-10
-9.83716e-10
-1.00567e-09
-1.02764e-09
-1.04957e-09
-1.07153e-09
-1.09351e-09
-1.11546e-09
-1.13741e-09
-1.15937e-09
-1.18133e-09
-1.20332e-09
-1.22532e-09
-1.24729e-09
-1.2693e-09
-1.29133e-09
-1.3134e-09
-1.33555e-09
-1.35776e-09
-1.3801e-09
-1.40261e-09
-1.42537e-09
-1.44845e-09
-1.47207e-09
-1.49639e-09
-1.52175e-09
-1.54855e-09
-1.5774e-09
-1.60915e-09
-1.64489e-09
-1.68619e-09
-1.73506e-09
-1.79417e-09
-1.86693e-09
-1.95747e-09
-2.07021e-09
-2.21203e-09
-2.42924e-09
-2.59971e-09
4.8868e-11
-1.56795e-11
-3.74553e-11
-5.99546e-11
-8.2582e-11
-1.05016e-10
-1.27231e-10
-1.4934e-10
-1.71353e-10
-1.93364e-10
-2.15332e-10
-2.37276e-10
-2.59225e-10
-2.81185e-10
-3.03118e-10
-3.2505e-10
-3.47026e-10
-3.68952e-10
-3.90913e-10
-4.12874e-10
-4.34809e-10
-4.56754e-10
-4.78714e-10
-5.00688e-10
-5.22649e-10
-5.44605e-10
-5.66539e-10
-5.88505e-10
-6.10457e-10
-6.32427e-10
-6.5439e-10
-6.76333e-10
-6.98279e-10
-7.20234e-10
-7.42195e-10
-7.64153e-10
-7.86133e-10
-8.08061e-10
-8.30015e-10
-8.51967e-10
-8.73934e-10
-8.95889e-10
-9.17842e-10
-9.39803e-10
-9.61757e-10
-9.83717e-10
-1.00567e-09
-1.02762e-09
-1.0496e-09
-1.07156e-09
-1.09349e-09
-1.11545e-09
-1.13743e-09
-1.15938e-09
-1.18136e-09
-1.20331e-09
-1.22527e-09
-1.24729e-09
-1.26929e-09
-1.29133e-09
-1.31342e-09
-1.33552e-09
-1.35774e-09
-1.38005e-09
-1.40256e-09
-1.42529e-09
-1.44839e-09
-1.47196e-09
-1.49625e-09
-1.52157e-09
-1.54832e-09
-1.57711e-09
-1.60875e-09
-1.64435e-09
-1.68548e-09
-1.73416e-09
-1.79305e-09
-1.8655e-09
-1.95573e-09
-2.06849e-09
-2.20996e-09
-2.42638e-09
-2.59664e-09
4.97672e-11
-1.70257e-11
-3.80756e-11
-5.99364e-11
-8.25401e-11
-1.04976e-10
-1.27221e-10
-1.49325e-10
-1.71358e-10
-1.93354e-10
-2.1533e-10
-2.37265e-10
-2.59228e-10
-2.81153e-10
-3.03101e-10
-3.25049e-10
-3.4701e-10
-3.68961e-10
-3.90889e-10
-4.12849e-10
-4.34815e-10
-4.56785e-10
-4.78733e-10
-5.00676e-10
-5.22627e-10
-5.44581e-10
-5.66552e-10
-5.88509e-10
-6.10466e-10
-6.3241e-10
-6.5435e-10
-6.76333e-10
-6.98284e-10
-7.20256e-10
-7.42192e-10
-7.64155e-10
-7.86107e-10
-8.08064e-10
-8.30013e-10
-8.51984e-10
-8.73931e-10