/*--------------------------------*- C++ -*----------------------------------*\
| =========                 |                                                 |
| \\      /  F ield         | OpenFOAM: The Open Source CFD Toolbox           |
|  \\    /   O peration     | Version:  v1906                                 |
|   \\  /    A nd           | Web:      www.OpenFOAM.com                      |
|    \\/     M anipulation  |                                                 |
\*---------------------------------------------------------------------------*/
FoamFile
{
    version     2.0;
    format      ascii;
    class       volScalarField;
    location    "6e-05";
    object      p;
}
// * * * * * * * * * * * * * * * * * * * * * * * * * * * * * * * * * * * * * //

dimensions      [0 2 -2 0 0 0 0];


internalField   nonuniform List<scalar> 
243374
(
-8.89997e-05
0.00098196
0.000469152
0.000895172
0.000909487
0.000950024
0.00096821
0.000978037
0.000979863
0.000980915
0.000972963
0.000963957
0.000955212
0.000952737
0.000948609
0.000944373
0.000939799
0.000934893
0.000931012
0.000926491
0.000922419
0.000919536
0.000918845
0.000918085
0.00091719
0.00091447
0.000909571
0.000905455
0.000905023
0.000907364
0.000910292
0.000912785
0.000914977
0.000916337
0.000917346
0.00091851
0.000920257
0.000922761
0.000926041
0.000930105
0.000935217
0.000941379
0.000948957
0.000958455
0.00097042
0.000984372
0.00100018
0.00101908
0.00104203
0.00107166
0.0011125
0.00116582
0.00123075
0.00130807
0.00140315
0.00151939
0.00166551
0.00184648
0.00207044
0.00234835
0.0026931
0.00312034
0.00364817
0.00430093
0.00510465
0.00609086
0.00732264
0.00882636
0.0106516
0.0128532
0.0154985
0.0186412
0.0223227
0.0265572
0.031278
0.0363096
0.0413441
0.0453934
0.0487035
0.0462486
0.00155828
0.00241126
0.00198562
0.00239461
0.00240006
0.00243514
0.00245074
0.00245855
0.00245685
0.00245687
0.00244699
0.00243774
0.00242757
0.00242435
0.00242005
0.00241605
0.00241165
0.00240688
0.00240311
0.00239857
0.00239433
0.00239129
0.00239055
0.00238928
0.00238843
0.00238587
0.0023807
0.00237641
0.00237606
0.00237868
0.00238193
0.0023846
0.00238687
0.00238821
0.00238917
0.00239035
0.00239206
0.00239451
0.0023978
0.00240195
0.0024072
0.0024135
0.00242124
0.00243096
0.00244311
0.00245711
0.00247291
0.0024918
0.00251474
0.00254462
0.00258612
0.00264015
0.00270589
0.00278389
0.00288024
0.00299816
0.00314638
0.00332929
0.00355546
0.00383629
0.00418468
0.00461652
0.00514981
0.00580936
0.00662123
0.00761542
0.00886189
0.0103813
0.0122213
0.0144391
0.0171028
0.0202621
0.0239533
0.0281916
0.032899
0.0378961
0.0428851
0.0469092
0.0501578
0.0484507
-0.000919933
0.000425284
-0.000122722
0.000358024
0.000373018
0.000415478
0.000434566
0.000445096
0.000443505
0.00044336
0.000433654
0.000425144
0.000415264
0.000413087
0.000409248
0.00040607
0.000402222
0.000397968
0.000394649
0.000390198
0.000386012
0.000382973
0.000382232
0.000380785
0.000380333
0.000378021
0.000372619
0.000368178
0.000367885
0.000370645
0.000374067
0.000377005
0.000379462
0.00038078
0.000381669
0.00038271
0.000384368
0.000386805
0.000390078
0.000394181
0.000399362
0.000405738
0.000413607
0.000423322
0.000435504
0.000449638
0.000465486
0.000484368
0.000507406
0.000537257
0.000578923
0.00063352
0.000699757
0.000777922
0.000875259
0.000994426
0.00114412
0.00132853
0.00155641
0.00183905
0.00218957
0.00262418
0.00316087
0.00382448
0.0046415
0.00564025
0.00689729
0.00842656
0.010277
0.0125059
0.0151806
0.0183516
0.0220461
0.026284
0.0309798
0.0359442
0.0408736
0.0447841
0.0481546
0.0463118
0.000241293
-3.99997e-05
0.00234011
0.00163307
0.00209268
0.0020879
0.00211794
0.00213148
0.00213896
0.00213321
0.00212957
0.00211633
0.00210599
0.00209473
0.00209142
0.00208722
0.00208406
0.00208024
0.0020759
0.00207259
0.00206802
0.00206334
0.00205999
0.00205927
0.00205712
0.00205676
0.00205458
0.00204889
0.00204433
0.00204412
0.00204706
0.00205078
0.00205388
0.00205619
0.00205738
0.00205837
0.00205954
0.00206123
0.00206372
0.00206702
0.00207127
0.00207666
0.0020831
0.0020911
0.00210104
0.00211345
0.00212775
0.00214362
0.00216237
0.00218539
0.00221563
0.00225798
0.00231324
0.00238022
0.00245892
0.0025573
0.0026779
0.00282959
0.0030158
0.00324567
0.00353091
0.00388474
0.00432352
0.00486514
0.00553492
0.00635941
0.00736643
0.00863686
0.0101812
0.012048
0.0142952
0.0169895
0.0201834
0.0238934
0.0281512
0.0328656
0.037838
0.0427817
0.0467327
0.0504573
0.0482587
0.0499583
-0.00209468
-0.00133215
0.000907824
0.000142806
0.000690672
0.000718256
0.00076742
0.000788576
0.000803478
0.000803331
0.000801779
0.00079122
0.000782866
0.000773444
0.00077182
0.000769211
0.000767431
0.000764738
0.000761142
0.000758343
0.00075398
0.000749398
0.000746169
0.000745726
0.000743465
0.000743581
0.00074167
0.000735758
0.000731143
0.000730974
0.000733891
0.00073764
0.000740832
0.000743365
0.000744614
0.000745433
0.000746524
0.000748211
0.000750664
0.000753998
0.000758145
0.000763361
0.000769858
0.000777922
0.000787864
0.000800253
0.000814622
0.000830655
0.000849497
0.000872735
0.000903021
0.000945346
0.00100106
0.00106849
0.00114724
0.00124628
0.00136795
0.00152093
0.00170825
0.00193949
0.00222618
0.00258151
0.00302226
0.00356639
0.00423911
0.00506734
0.00607985
0.00735621
0.00890818
0.0107832
0.0130406
0.0157467
0.0189512
0.0226715
0.0269252
0.0316305
0.0365772
0.0414754
0.0453356
0.0491226
0.0473948
0.0516345
0.0588709
-0.00223612
-0.000742572
0.00174941
0.00092556
0.00142658
0.00143148
0.00147338
0.00148954
0.00149903
0.0014934
0.00148656
0.00147276
0.00146113
0.00144893
0.00144597
0.00144262
0.00144027
0.00143705
0.00143311
0.0014301
0.00142533
0.00142013
0.00141647
0.00141586
0.001413
0.0014132
0.00141129
0.00140517
0.00140045
0.00140016
0.00140303
0.00140698
0.00141035
0.00141259
0.00141363
0.00141467
0.00141592
0.00141777
0.00142036
0.0014236
0.00142778
0.00143304
0.00143944
0.00144749
0.00145752
0.00147011
0.00148465
0.00150078
0.00151957
0.00154289
0.00157372
0.00161668
0.00167292
0.0017408
0.00182005
0.00191994
0.00204273
0.00219739
0.00238632
0.00261935
0.00290831
0.00326671
0.00371119
0.00425975
0.00493803
0.0057729
0.0067956
0.00808219
0.00964778
0.0115399
0.0138181
0.0165505
0.0197811
0.0235286
0.0278068
0.032552
0.0375465
0.0425061
0.0464773
0.0505233
0.0488098
0.0533818
0.0708228
-0.00221518
-0.00120089
0.00136632
0.000535626
0.00108537
0.00110802
0.00115412
0.00117552
0.00119007
0.001188
0.0011831
0.00117154
0.00116123
0.00114994
0.00114795
0.00114583
0.00114421
0.00114177
0.0011381
0.00113531
0.00113073
0.00112558
0.00112204
0.00112175
0.00111886
0.00111923
0.00111754
0.00111133
0.00110658
0.0011063
0.00110911
0.00111299
0.00111631
0.00111875
0.00111988
0.00112078
0.00112209
0.00112397
0.00112649
0.00112984
0.00113399
0.00113917
0.00114561
0.00115369
0.0011638
0.00117639
0.00119097
0.00120724
0.00122615
0.00124966
0.00128061
0.00132359
0.00138014
0.00144841
0.00152782
0.00162807
0.00175155
0.00190707
0.00209685
0.00233093
0.00262115
0.00298092
0.00342718
0.00397807
0.0046592
0.00549738
0.00652625
0.00781759
0.0093904
0.0112913
0.0135805
0.0163267
0.0195711
0.0233358
0.0276332
0.0324008
0.0374097
0.0423769
0.0463248
0.050409
0.048928
0.0546929
0.0774051
-0.00217527
-0.00120235
0.00136576
0.000535668
0.00108557
0.00110822
0.00115431
0.0011757
0.00119024
0.00118812
0.00118322
0.00117165
0.00116131
0.00114997
0.00114801
0.00114586
0.00114423
0.00114178
0.00113819
0.00113546
0.00113085
0.00112573
0.00112214
0.00112176
0.00111896
0.00111938
0.00111767
0.00111145
0.00110669
0.00110631
0.00110911
0.00111307
0.00111644
0.00111878
0.00111989
0.00112089
0.00112227
0.00112426
0.00112685
0.00113001
0.00113406
0.00113918
0.00114557
0.00115372
0.00116384
0.0011765
0.00119119
0.00120752
0.00122644
0.00125005
0.00128122
0.00132439
0.00138117
0.00144975
0.00152952
0.00163016
0.00175417
0.0019104
0.00210102
0.00233618
0.00262776
0.00298921
0.0034376
0.0039912
0.00467578
0.00551833
0.00655275
0.00785082
0.00943245
0.0113446
0.0136482
0.0164132
0.0196794
0.0234722
0.0278044
0.0326147
0.0376751
0.0427032
0.0467212
0.0508782
0.0494473
0.0553932
0.0795363
-0.0021208
-0.00074704
0.0017476
0.000924936
0.0014264
0.00143154
0.00147357
0.00148954
0.0014992
0.00149363
0.00148676
0.00147295
0.00146135
0.00144906
0.00144624
0.00144296
0.00144062
0.00143738
0.00143336
0.00143024
0.00142543
0.0014202
0.00141651
0.00141594
0.00141321
0.00141339
0.00141167
0.00140553
0.00140072
0.00140025
0.00140316
0.00140709
0.0014104
0.00141283
0.001414
0.00141491
0.00141626
0.00141823
0.00142075
0.00142399
0.00142806
0.00143316
0.00143957
0.00144769
0.00145791
0.00147061
0.00148524
0.00150157
0.00152069
0.00154436
0.0015755
0.00161888
0.00167582
0.00174464
0.00182484
0.00192584
0.00205022
0.00220685
0.00239823
0.0026343
0.0029271
0.00329025
0.00374078
0.00429705
0.00498511
0.00583248
0.00687101
0.00817656
0.00976689
0.011691
0.0140098
0.0167954
0.0200868
0.023913
0.0282876
0.0331498
0.0382839
0.0434034
0.0475441
0.0517681
0.0502681
0.0554366
0.077373
-0.00209972
-0.00134114
0.000904323
0.000141791
0.000690446
0.000718173
0.000767485
0.000788577
0.000803521
0.000803266
0.000801707
0.000791133
0.000782685
0.000773007
0.000771488
0.000768927
0.000767209
0.00076455
0.000760965
0.000758199
0.000753849
0.000749217
0.000745905
0.000745436
0.000743384
0.000743533
0.000741715
0.00073563
0.000730934
0.000730504
0.000733448
0.000737304
0.000740584
0.000743105
0.000744338
0.000745384
0.000746877
0.000748914
0.000751457
0.000754548
0.000758605
0.000763705
0.000770156
0.000778448
0.000788684
0.000801404
0.000816149
0.000832537
0.000851718
0.000875425
0.000906601
0.000949886
0.00100673
0.00107568
0.0011562
0.00125711
0.00138131
0.0015378
0.0017294
0.00196602
0.00225951
0.00262334
0.00307476
0.00363244
0.00432238
0.00517254
0.00621286
0.00752277
0.00911862
0.01105
0.0133791
0.0161801
0.0194922
0.0233519
0.0277785
0.0326953
0.0378962
0.0430919
0.0472827
0.0514154
0.0500976
0.0548813
0.0704427
-0.00186761
-5.39888e-05
0.00233568
0.00163195
0.00209268
0.00208839
0.00211861
0.00213205
0.00213959
0.00213383
0.00213011
0.00211684
0.0021065
0.00209506
0.00209198
0.0020878
0.00208459
0.00208074
0.00207642
0.00207303
0.00206838
0.00206369
0.00206025
0.00205943
0.00205748
0.00205722
0.00205531
0.00204963
0.00204493
0.00204429
0.0020473
0.00205109
0.00205427
0.00205677
0.00205806
0.00205901
0.00206037
0.0020624
0.00206489
0.00206797
0.0020719
0.00207693
0.00208333
0.00209147
0.00210175
0.0021145
0.00212909
0.00214545
0.0021649
0.00218871
0.00221981
0.00226328
0.00232014
0.00238909
0.00247012
0.00257132
0.00269561
0.00285196
0.00304396
0.00328105
0.00357531
0.00394056
0.00439379
0.00495368
0.00564666
0.00650068
0.00754533
0.0088611
0.0104644
0.0124071
0.0147507
0.0175739
0.020912
0.0248098
0.0292992
0.034297
0.0396087
0.0449465
0.0493276
0.053492
0.0517007
0.0540789
0.0582461
-0.00114138
-0.000943124
0.000418964
-0.000124562
0.000357476
0.000372795
0.000415417
0.000434582
0.000445079
0.000443331
0.000443202
0.000433476
0.000424851
0.000414723
0.000412648
0.000408875
0.000405791
0.000402012
0.000397698
0.000394321
0.000389904
0.000385627
0.000382531
0.000381867
0.000380623
0.000380202
0.000378011
0.000372325
0.000367743
0.000367186
0.000370025
0.000373561
0.000376553
0.000379149
0.000380513
0.000381562
0.0003831
0.000385175
0.000387709
0.000390821
0.000394928
0.000400051
0.000406513
0.000414753
0.000424977
0.000437709
0.000452379
0.000468777
0.000488364
0.000512368
0.000543646
0.000586973
0.000643589
0.00071249
0.000793708
0.000894481
0.00101827
0.00117407
0.00136604
0.00160351
0.0018982
0.00226368
0.00271724
0.00327795
0.00397201
0.00482767
0.00587536
0.00719221
0.00879869
0.0107491
0.0131041
0.0159428
0.0193088
0.0232513
0.0277943
0.0328646
0.0382789
0.0437353
0.0482265
0.0521902
0.0509724
0.0538106
0.00152095
0.00240409
0.00198391
0.00239443
0.00240047
0.00243571
0.00245124
0.00245901
0.00245724
0.00245718
0.00244728
0.00243798
0.00242763
0.00242456
0.00242026
0.00241623
0.00241181
0.00240705
0.00240325
0.00239863
0.00239439
0.00239129
0.00239043
0.00238933
0.00238864
0.00238628
0.00238109
0.00237666
0.00237587
0.0023785
0.00238189
0.00238474
0.00238714
0.00238856
0.00238962
0.00239109
0.00239321
0.00239578
0.0023989
0.00240284
0.00240785
0.00241422
0.00242229
0.00243252
0.00244524
0.0024598
0.00247631
0.00249618
0.00252034
0.00255169
0.002595
0.00265142
0.00272014
0.00280175
0.00290253
0.00302609
0.00318147
0.00337346
0.00361095
0.0039058
0.00427197
0.00472634
0.00528801
0.00598354
0.00684105
0.00789304
0.00921087
0.0108216
0.0127802
0.0151469
0.0180015
0.021395
0.0253813
0.0299807
0.035134
0.0406652
0.0462781
0.0509886
0.054934
0.0539429
-0.000164717
0.000973927
0.000467297
0.000894918
0.000909725
0.000950374
0.000968649
0.000978373
0.000980001
0.000981037
0.000973055
0.000963942
0.000955071
0.000952673
0.00094858
0.00094437
0.000939838
0.000934919
0.000930973
0.00092643
0.000922257
0.000919379
0.000918746
0.000918101
0.000917294
0.000914713
0.000909589
0.000905285
0.000904589
0.000907021
0.000910079
0.000912675
0.000915089
0.000916517
0.000917587
0.000919183
0.000921365
0.000923937
0.000927039
0.000931086
0.000936116
0.00094243
0.000950472
0.000960595
0.00097327
0.00098784
0.00100438
0.00102439
0.00104879
0.0010803
0.00112342
0.00117952
0.00124801
0.00132962
0.00142986
0.00155273
0.00170738
0.00189904
0.00213649
0.0024313
0.00279724
0.00325128
0.00381292
0.00450845
0.00536629
0.00642088
0.00773797
0.0093508
0.0113159
0.0136947
0.0165652
0.0199891
0.0240234
0.028689
0.0339406
0.0396089
0.045391
0.0502642
0.0544073
0.0527063
-0.0010201
0.000733986
0.000233875
0.000620312
0.00065833
0.000692676
0.000708329
0.000712259
0.000711725
0.000706603
0.00069601
0.000684074
0.000673506
0.000666901
0.000660121
0.000652744
0.000645682
0.000638975
0.000632701
0.000625981
0.000619852
0.000615789
0.000615089
0.000615466
0.000614245
0.000611466
0.000607809
0.000604871
0.000604215
0.0006054
0.000607108
0.000608388
0.00060985
0.00061111
0.000612153
0.000613595
0.000615663
0.000618289
0.000621493
0.000625409
0.00063005
0.000635561
0.000642623
0.000651637
0.00066287
0.000676264
0.000692084
0.000711172
0.000734299
0.000763423
0.00080187
0.000851579
0.000912654
0.000986541
0.00107578
0.00118394
0.00132223
0.00149565
0.00171085
0.00197693
0.0023064
0.00271412
0.0032188
0.00384364
0.00461421
0.00556444
0.00674062
0.00818447
0.00994835
0.0120888
0.0146711
0.0177775
0.0214636
0.0257562
0.030653
0.036037
0.0416117
0.0464525
0.0504181
0.0468793
-0.000126663
0.000521555
0.0019785
0.00159276
0.00202561
0.00208831
0.00214315
0.00217569
0.00219308
0.00220112
0.00220367
0.00219854
0.0021912
0.00218529
0.00218206
0.002178
0.00217317
0.00216783
0.00216249
0.00215766
0.00215213
0.00214729
0.00214405
0.00214363
0.00214419
0.00214317
0.00214031
0.00213653
0.00213344
0.00213291
0.00213445
0.0021364
0.00213793
0.00213958
0.00214088
0.00214195
0.00214345
0.00214546
0.00214801
0.00215134
0.00215531
0.00216004
0.00216573
0.00217282
0.00218189
0.00219344
0.00220697
0.00222275
0.00224191
0.00226499
0.00229429
0.00233334
0.00238373
0.00244567
0.0025205
0.00261092
0.00272098
0.00286079
0.00303559
0.00325253
0.00352115
0.00385398
0.00426599
0.00477547
0.0054062
0.0061836
0.00714158
0.00832773
0.00978346
0.0115584
0.0137096
0.0163026
0.0194081
0.023078
0.0273314
0.032142
0.037373
0.0427371
0.0472991
0.0508508
0.0480831
0.0424005
-0.00114268
-0.00103031
0.000827406
0.000215239
0.000628746
0.000663498
0.000708281
0.000732215
0.000743721
0.000747551
0.000747401
0.000739725
0.000730453
0.000722244
0.000718015
0.000712554
0.000706712
0.000700827
0.000694694
0.000689527
0.000683968
0.000678967
0.000675533
0.000674809
0.000674689
0.000673394
0.000670374
0.000666084
0.000662514
0.000661926
0.000663564
0.000665712
0.000667453
0.000669196
0.000670507
0.000671576
0.000672918
0.000674896
0.000677523
0.000680748
0.000684713
0.000689564
0.000695306
0.000702541
0.000711791
0.000723348
0.000737
0.000752916
0.000772049
0.000795162
0.000824557
0.000864107
0.000915549
0.000978546
0.00105436
0.00114632
0.00125833
0.00140008
0.0015769
0.00179608
0.00206773
0.00240441
0.00282125
0.00333673
0.00397468
0.00476041
0.00572777
0.00692721
0.00839694
0.0101868
0.0123522
0.0149608
0.0180757
0.0217474
0.0260009
0.0307976
0.0359821
0.041254
0.045667
0.0492983
0.0458387
0.041594
-0.00575701
-0.00236559
0.00018619
0.00176587
0.00131388
0.00176093
0.00182119
0.00188973
0.00193202
0.00195905
0.00197486
0.00198482
0.00198433
0.00198156
0.00197936
0.001981
0.00198006
0.0019781
0.00197505
0.00197137
0.00196843
0.0019645
0.00196103
0.00195879
0.00195869
0.00195884
0.00195806
0.00195527
0.0019509
0.00194735
0.00194698
0.00194913
0.00195179
0.00195376
0.00195574
0.0019572
0.00195823
0.00195963
0.00196152
0.00196398
0.00196734
0.00197144
0.00197635
0.00198228
0.00198965
0.00199896
0.00201082
0.00202449
0.00204019
0.00205923
0.00208215
0.00211158
0.00215163
0.00220358
0.0022672
0.00234353
0.00243637
0.00254973
0.0026926
0.00287017
0.00309022
0.00336333
0.00370213
0.00412162
0.00463965
0.00528078
0.00607045
0.00704136
0.00824805
0.00972545
0.0115236
0.013696
0.016309
0.019422
0.0230799
0.0273031
0.0320354
0.0371051
0.0422289
0.0464409
0.0497836
0.0470603
0.0421438
-0.011468
-0.000588018
-7.1374e-05
0.00177874
0.00137333
0.0017958
0.00183715
0.00189373
0.0019253
0.0019431
0.00195387
0.00196011
0.0019552
0.00194989
0.00194423
0.00194414
0.00194193
0.00193923
0.00193577
0.00193182
0.0019289
0.00192508
0.00192166
0.00191934
0.00191917
0.00191896
0.0019183
0.00191571
0.00191104
0.00190706
0.00190671
0.00190905
0.00191191
0.00191433
0.00191652
0.00191787
0.00191887
0.00192007
0.00192189
0.00192444
0.0019277
0.00193174
0.00193681
0.00194288
0.00195037
0.00195981
0.00197168
0.00198555
0.00200132
0.00202023
0.00204311
0.00207254
0.00211304
0.00216593
0.00223034
0.00230713
0.00240133
0.00251632
0.00266104
0.00284049
0.00306268
0.00333843
0.00368053
0.00410449
0.00462815
0.00527615
0.00607441
0.0070542
0.00827637
0.00976993
0.011585
0.0137738
0.0164049
0.0195327
0.0232004
0.027424
0.03214
0.0371745
0.0422417
0.0463567
0.0496256
0.0466424
0.0431886
0.0239251
0.000225874
0.00267724
0.00355139
0.00312909
0.0034341
0.00349379
0.00353924
0.00357273
0.0035913
0.00360213
0.00361144
0.00360793
0.00360519
0.0036011
0.00360297
0.00360328
0.00360365
0.00360217
0.00359994
0.00359901
0.00359668
0.00359439
0.00359307
0.00359383
0.0035937
0.00359377
0.00359197
0.00358721
0.00358319
0.00358321
0.0035862
0.00358969
0.00359239
0.00359483
0.0035963
0.00359726
0.00359841
0.00360017
0.00360262
0.00360586
0.00361
0.00361519
0.00362141
0.0036291
0.00363877
0.00365082
0.00366462
0.00368015
0.00369885
0.00372137
0.00375057
0.00379151
0.0038449
0.00390979
0.00398652
0.00408143
0.00419726
0.00434308
0.00452304
0.00474575
0.0050226
0.00536633
0.00579263
0.00631875
0.00697061
0.0077741
0.00875589
0.00998966
0.011494
0.0133195
0.0155176
0.0181601
0.0212962
0.024965
0.0291894
0.0338741
0.0388429
0.0438935
0.0480798
0.0514633
0.0501374
0.044435
0.0290269
0.000654933
0.000649613
0.00181954
0.00140352
0.00173564
0.00175193
0.00178444
0.00182574
0.00185167
0.00186669
0.00188146
0.00188113
0.00188043
0.00187667
0.00188131
0.00188215
0.00188449
0.00188402
0.00188276
0.0018831
0.00188141
0.00187961
0.00187867
0.00187991
0.00187978
0.00188057
0.00187931
0.00187438
0.00187023
0.00187045
0.00187378
0.00187758
0.00188073
0.00188341
0.00188479
0.0018857
0.00188673
0.00188834
0.00189074
0.00189399
0.00189807
0.00190325
0.0019096
0.00191739
0.001927
0.0019392
0.00195324
0.00196877
0.00198735
0.00200983
0.00203889
0.00208006
0.00213414
0.00219956
0.00227617
0.00237216
0.00248915
0.00263652
0.00281794
0.00304233
0.00332097
0.00366693
0.00409622
0.00462591
0.00528272
0.00609288
0.00707762
0.00832583
0.00984022
0.011677
0.0138839
0.016533
0.0196756
0.0233382
0.0275678
0.0322713
0.0372571
0.0422521
0.0463737
0.0497586
0.0487739
0.045463
0.0360311
-0.000617769
0.00407352
0.0035938
0.00329818
0.00347959
0.00343535
0.00344263
0.00351082
0.00354507
0.00355371
0.00356999
0.00356682
0.00356572
0.00355922
0.00356361
0.00356455
0.00356783
0.0035685
0.0035682
0.00356958
0.00356874
0.0035673
0.0035669
0.00356895
0.00356845
0.00356992
0.00356935
0.00356432
0.00356027
0.00356083
0.00356458
0.00356884
0.00357221
0.00357484
0.00357615
0.00357715
0.00357827
0.00357992
0.00358239
0.00358564
0.00358988
0.00359523
0.00360165
0.00360961
0.00361948
0.00363184
0.00364594
0.00366144
0.00367976
0.00370204
0.00373118
0.00377281
0.0038273
0.00389314
0.00396959
0.00406615
0.00418391
0.00433261
0.00451482
0.00474011
0.00502017
0.00536809
0.00580008
0.0063332
0.00699472
0.00781135
0.00880105
0.0100626
0.0115897
0.0134396
0.015657
0.0183161
0.0214644
0.025097
0.0293399
0.0340776
0.0390965
0.0441286
0.0484
0.051711
0.0534345
0.0422095
0.0457117
-0.00150019
0.00272571
0.00249216
0.00230815
0.00248102
0.00242831
0.00239379
0.00240741
0.00243217
0.00245371
0.00247636
0.00247602
0.00247638
0.00247055
0.00247455
0.00247556
0.00247968
0.00248124
0.00248147
0.00248363
0.00248315
0.00248184
0.00248162
0.00248428
0.00248361
0.00248585
0.00248564
0.00248042
0.00247647
0.00247718
0.00248092
0.00248529
0.00248884
0.00249158
0.00249283
0.0024937
0.00249481
0.00249648
0.0024989
0.00250215
0.00250627
0.00251146
0.00251786
0.00252582
0.00253562
0.00254799
0.00256227
0.002578
0.0025964
0.00261892
0.0026482
0.00268981
0.00274475
0.00281102
0.00288738
0.00298462
0.00310348
0.00325369
0.00343705
0.00366378
0.00394547
0.00429531
0.00472988
0.00526637
0.0059326
0.00675571
0.00775533
0.00902363
0.0105605
0.0124194
0.0146439
0.0173188
0.0204989
0.0242014
0.0284605
0.0332444
0.0382765
0.0433254
0.0476373
0.050851
0.052946
0.0437098
0.0539711
-0.00210586
0.00413392
0.00322842
0.0029867
0.00309891
0.00302183
0.00304005
0.00303879
0.00305614
0.00307522
0.00309944
0.00310035
0.00310086
0.00309309
0.00309601
0.00309728
0.00310196
0.00310409
0.00310513
0.00310801
0.00310797
0.00310676
0.0031068
0.00311003
0.00310906
0.00311195
0.00311217
0.00310695
0.00310307
0.00310381
0.00310748
0.00311207
0.00311585
0.00311836
0.00311946
0.00312058
0.00312185
0.00312374
0.0031264
0.00312963
0.00313377
0.00313891
0.00314521
0.00315315
0.00316302
0.00317553
0.0031899
0.00320572
0.00322393
0.00324652
0.00327629
0.00331825
0.00337354
0.00343994
0.00351627
0.00361392
0.00373337
0.00388472
0.00406889
0.00429647
0.00457934
0.00493087
0.00536762
0.00590708
0.0065773
0.00740563
0.00841536
0.00968957
0.011235
0.0131051
0.01534
0.0180374
0.021244
0.0249717
0.0291922
0.0339932
0.0390743
0.0441619
0.0485635
0.0519251
0.0551492
0.0446977
0.0596486
-0.00243095
0.0037773
0.00297578
0.00281927
0.00293234
0.00285486
0.0028494
0.00281909
0.00283473
0.00285678
0.00288321
0.00288563
0.00288648
0.00287654
0.00287859
0.00288038
0.00288465
0.00288766
0.0028883
0.00289122
0.00289122
0.00288989
0.00288997
0.0028936
0.00289243
0.00289553
0.00289598
0.00289063
0.00288671
0.00288738
0.00289087
0.00289542
0.00289918
0.0029018
0.00290294
0.00290395
0.00290539
0.0029074
0.00290997
0.00291334
0.00291752
0.00292267
0.00292896
0.00293687
0.00294679
0.0029593
0.00297377
0.00298977
0.0030081
0.00303095
0.00306106
0.00310311
0.00315885
0.00322566
0.00330215
0.0034002
0.00352052
0.003673
0.00385816
0.004087
0.00437153
0.00472502
0.00516426
0.00570705
0.00638165
0.00721405
0.00823606
0.00951539
0.01107
0.0129514
0.015198
0.0179134
0.0211428
0.0249203
0.0291839
0.0340314
0.0391535
0.0442837
0.0487397
0.0520731
0.0555458
0.0455044
0.0629593
-0.00243134
0.00377595
0.00297526
0.00281914
0.00293238
0.00285497
0.00284954
0.00281932
0.00283491
0.00285683
0.00288326
0.0028857
0.00288655
0.00287655
0.00287866
0.00288042
0.00288466
0.00288766
0.00288835
0.0028913
0.00289127
0.00288997
0.00289
0.00289357
0.00289251
0.00289562
0.0028961
0.00289075
0.00288682
0.00288738
0.00289087
0.00289545
0.00289921
0.00290178
0.00290295
0.00290404
0.00290554
0.00290765
0.00291035
0.00291352
0.00291753
0.00292255
0.00292886
0.00293688
0.00294686
0.00295945
0.00297402
0.00299009
0.00300842
0.00303135
0.00306166
0.00310388
0.00315982
0.00322699
0.00330385
0.00340229
0.00352312
0.00367631
0.00386234
0.00409227
0.00437814
0.00473332
0.00517473
0.00572028
0.00639836
0.0072352
0.00826281
0.00954886
0.0111123
0.0130051
0.0152661
0.0180002
0.0212518
0.0250577
0.029356
0.0342463
0.0394196
0.0446091
0.0491307
0.0525302
0.0560625
0.0460565
0.0640713
-0.00210784
0.00412986
0.00322665
0.00298609
0.00309872
0.0030218
0.00304009
0.00303841
0.00305618
0.0030754
0.00309956
0.00310037
0.00310088
0.00309294
0.00309606
0.00309739
0.0031021
0.00310423
0.0031052
0.00310797
0.0031079
0.00310663
0.0031066
0.00310985
0.00310905
0.00311189
0.00311235
0.00310706
0.00310312
0.0031036
0.00310738
0.00311198
0.00311566
0.00311836
0.00311959
0.00312058
0.00312207
0.0031242
0.0031268
0.00313003
0.00313414
0.0031392
0.0031455
0.00315354
0.00316365
0.0031763
0.00319086
0.00320691
0.00322546
0.00324839
0.00327854
0.00332094
0.00337701
0.00344448
0.00352188
0.0036207
0.00374194
0.0038955
0.00408235
0.0043133
0.00460044
0.00495728
0.00540075
0.00594875
0.00662983
0.00747201
0.00849932
0.00979463
0.0113677
0.0132732
0.0155532
0.0183093
0.0215844
0.0254015
0.0297282
0.0346607
0.0398996
0.0451691
0.0497705
0.0533364
0.0567868
0.0463718
0.0630024
-0.0015035
0.00271797
0.00248886
0.00230671
0.00248038
0.00242782
0.00239348
0.00240707
0.00243189
0.00245326
0.00247594
0.00247561
0.00247593
0.0024698
0.00247401
0.00247506
0.00247921
0.00248077
0.00248102
0.00248317
0.00248269
0.00248135
0.00248105
0.00248366
0.00248329
0.0024855
0.00248549
0.00248008
0.00247604
0.00247638
0.00248019
0.00248463
0.00248822
0.00249098
0.00249225
0.00249331
0.00249482
0.00249692
0.00249949
0.0025026
0.00250672
0.00251186
0.00251836
0.00252665
0.00253682
0.0025495
0.00256412
0.00258019
0.00259893
0.00262192
0.00265206
0.00269462
0.00275078
0.00281862
0.00289675
0.00299584
0.00311728
0.00327104
0.00345875
0.00369094
0.00397952
0.00433793
0.00478332
0.00533354
0.00601713
0.00686244
0.0078904
0.00919226
0.0107736
0.0126893
0.0149862
0.0177577
0.0210463
0.0248902
0.0293218
0.0343209
0.0396108
0.0449583
0.0496
0.0531511
0.0555996
0.046505
0.0596614
-0.000622245
0.00406197
0.00358996
0.00329714
0.00347957
0.00343577
0.00344322
0.00351131
0.00354575
0.00355433
0.0035705
0.00356726
0.00356617
0.00355936
0.00356405
0.003565
0.00356825
0.00356891
0.00356862
0.00356992
0.003569
0.00356753
0.00356699
0.00356887
0.00356866
0.00357023
0.00356999
0.00356495
0.00356078
0.0035608
0.00356466
0.00356903
0.00357254
0.00357533
0.00357666
0.00357766
0.00357906
0.00358116
0.00358366
0.00358669
0.00359064
0.00359564
0.003602
0.0036101
0.00362036
0.00363311
0.00364759
0.00366362
0.00368267
0.0037058
0.00373588
0.00377865
0.00383487
0.00390284
0.00398181
0.00408138
0.0042031
0.00435682
0.00454525
0.00477826
0.0050679
0.00542803
0.00587553
0.00642824
0.00711455
0.00796279
0.0089933
0.0103029
0.0118931
0.013824
0.0161444
0.0189507
0.0222467
0.0260828
0.030572
0.0356156
0.0410008
0.0464584
0.0511986
0.0549892
0.0571993
0.0460749
0.0538517
0.000381753
0.00063202
0.00181387
0.00140156
0.00173507
0.00175166
0.0017843
0.0018257
0.00185157
0.0018664
0.00188119
0.00188084
0.00188007
0.001876
0.00188079
0.00188168
0.00188412
0.00188371
0.0018824
0.00188267
0.00188102
0.00187913
0.00187812
0.00187942
0.00187952
0.00188032
0.00187924
0.00187401
0.00186973
0.0018696
0.00187303
0.00187694
0.00188017
0.001883
0.00188444
0.00188548
0.00188701
0.00188911
0.00189163
0.00189473
0.00189886
0.00190399
0.00191048
0.00191871
0.00192887
0.00194158
0.00195613
0.00197225
0.00199157
0.00201507
0.0020456
0.00208847
0.00214464
0.00221282
0.00229258
0.0023921
0.00251387
0.00266756
0.00285679
0.00309111
0.00338221
0.00374363
0.00419254
0.00474705
0.00543517
0.00628522
0.00732088
0.00863056
0.0102251
0.012164
0.0145014
0.0173204
0.0206652
0.0245844
0.0291271
0.0342193
0.0396679
0.0452062
0.0499199
0.0539402
0.0535449
0.0499678
0.0455282
0.000870491
0.00265243
0.00354501
0.00312755
0.00343388
0.00349414
0.00353968
0.00357307
0.0035917
0.00360253
0.00361171
0.00360818
0.0036054
0.00360106
0.00360308
0.00360337
0.00360374
0.00360227
0.00360004
0.00359905
0.00359666
0.00359441
0.00359296
0.00359354
0.00359364
0.00359383
0.00359223
0.00358752
0.00358341
0.00358293
0.00358593
0.00358955
0.00359252
0.00359503
0.00359652
0.00359764
0.00359912
0.00360133
0.00360394
0.00360708
0.003611
0.00361598
0.00362226
0.00363025
0.00364046
0.00365315
0.00366763
0.003684
0.00370374
0.00372755
0.00375833
0.00380113
0.0038571
0.00392523
0.00400584
0.00410557
0.00422747
0.00438099
0.00457077
0.0048057
0.00509757
0.00546041
0.00591095
0.00646767
0.00715803
0.00801066
0.00905478
0.0103652
0.0119682
0.0139198
0.0162783
0.0191249
0.0225143
0.0265009
0.0311108
0.0362874
0.0418357
0.0475595
0.0524881
0.0566388
0.0560125
0.0511295
0.037973
0.000736887
-0.000107891
0.00177123
0.00137159
0.00179559
0.00183744
0.00189409
0.0019257
0.00194342
0.00195401
0.00196022
0.00195528
0.00194987
0.0019441
0.00194405
0.00194182
0.00193918
0.00193577
0.00193182
0.00192885
0.001925
0.00192147
0.00191914
0.00191902
0.00191893
0.00191835
0.00191588
0.00191101
0.00190689
0.00190626
0.00190868
0.00191165
0.00191416
0.00191658
0.00191803
0.00191911
0.00192074
0.00192298
0.00192559
0.00192871
0.00193276
0.00193778
0.00194403
0.00195199
0.00196206
0.00197471
0.00198929
0.00200587
0.00202595
0.00205036
0.00208179
0.00212469
0.00218053
0.00224874
0.00233012
0.00242984
0.0025519
0.00270572
0.00289657
0.00313314
0.00342693
0.00379168
0.00424425
0.00480401
0.00549744
0.00635344
0.00740609
0.0087194
0.0103293
0.0122933
0.0146711
0.0175416
0.0209705
0.0250156
0.0296994
0.034984
0.0406979
0.0465644
0.0515645
0.0557478
0.053561
0.0520665
0.0342282
-0.00038358
0.000163587
0.00175948
0.00131257
0.00176103
0.00182189
0.0018905
0.00193272
0.0019596
0.00197535
0.00198524
0.00198464
0.0019818
0.00197935
0.00198104
0.00198023
0.00197826
0.0019752
0.0019714
0.00196837
0.00196454
0.0019611
0.00195877
0.00195866
0.00195879
0.0019581
0.00195559
0.0019512
0.0019475
0.00194677
0.00194878
0.00195153
0.00195383
0.00195598
0.00195747
0.00195869
0.00196033
0.00196263
0.00196537
0.00196858
0.00197252
0.00197748