/*--------------------------------*- C++ -*----------------------------------*\
| =========                 |                                                 |
| \\      /  F ield         | OpenFOAM: The Open Source CFD Toolbox           |
|  \\    /   O peration     | Version:  v1906                                 |
|   \\  /    A nd           | Web:      www.OpenFOAM.com                      |
|    \\/     M anipulation  |                                                 |
\*---------------------------------------------------------------------------*/
FoamFile
{
    version     2.0;
    format      ascii;
    class       volScalarField;
    location    "5.5";
    object      p;
}
// * * * * * * * * * * * * * * * * * * * * * * * * * * * * * * * * * * * * * //

dimensions      [0 2 -2 0 0 0 0];


internalField   nonuniform List<scalar> 
243374
(
-7.0175e-18
-4.00545e-11
-5.94457e-11
-8.2434e-11
-1.05121e-10
-1.27466e-10
-1.49725e-10
-1.7184e-10
-1.93928e-10
-2.15965e-10
-2.38019e-10
-2.60038e-10
-2.82118e-10
-3.04075e-10
-3.26141e-10
-3.48063e-10
-3.70176e-10
-3.92224e-10
-4.143e-10
-4.36294e-10
-4.58353e-10
-4.80361e-10
-5.02362e-10
-5.24452e-10
-5.46467e-10
-5.68467e-10
-5.90523e-10
-6.12558e-10
-6.34564e-10
-6.56646e-10
-6.78648e-10
-7.00655e-10
-7.22687e-10
-7.4472e-10
-7.66792e-10
-7.88778e-10
-8.10786e-10
-8.32843e-10
-8.54923e-10
-8.76916e-10
-8.98913e-10
-9.21013e-10
-9.43037e-10
-9.65077e-10
-9.87109e-10
-1.00914e-09
-1.03115e-09
-1.0532e-09
-1.07525e-09
-1.09729e-09
-1.11932e-09
-1.1413e-09
-1.16336e-09
-1.18534e-09
-1.2074e-09
-1.22948e-09
-1.25148e-09
-1.27356e-09
-1.2956e-09
-1.31764e-09
-1.33979e-09
-1.36188e-09
-1.38401e-09
-1.40634e-09
-1.42866e-09
-1.45118e-09
-1.47409e-09
-1.4972e-09
-1.52092e-09
-1.54541e-09
-1.57108e-09
-1.59819e-09
-1.62768e-09
-1.66038e-09
-1.69739e-09
-1.74029e-09
-1.79204e-09
-1.8546e-09
-1.92673e-09
-2.04336e-09
-1.51074e-11
-4.04402e-11
-5.98207e-11
-8.26217e-11
-1.05217e-10
-1.2754e-10
-1.49759e-10
-1.71899e-10
-1.93949e-10
-2.15994e-10
-2.38073e-10
-2.60083e-10
-2.82093e-10
-3.04111e-10
-3.26134e-10
-3.48233e-10
-3.70182e-10
-3.92224e-10
-4.1433e-10
-4.36295e-10
-4.58336e-10
-4.80402e-10
-5.02395e-10
-5.24437e-10
-5.46493e-10
-5.68528e-10
-5.90553e-10
-6.12542e-10
-6.34574e-10
-6.56623e-10
-6.78667e-10
-7.00678e-10
-7.22734e-10
-7.44748e-10
-7.6679e-10
-7.8878e-10
-8.10822e-10
-8.3285e-10
-8.54931e-10
-8.76962e-10
-8.98959e-10
-9.21015e-10
-9.43042e-10
-9.65102e-10
-9.87092e-10
-1.00915e-09
-1.03121e-09
-1.05322e-09
-1.07526e-09
-1.09728e-09
-1.1193e-09
-1.14136e-09
-1.16338e-09
-1.18545e-09
-1.20741e-09
-1.22955e-09
-1.25151e-09
-1.27359e-09
-1.29562e-09
-1.31771e-09
-1.3398e-09
-1.36191e-09
-1.3841e-09
-1.40639e-09
-1.42873e-09
-1.45134e-09
-1.47422e-09
-1.49741e-09
-1.5212e-09
-1.54579e-09
-1.57152e-09
-1.59885e-09
-1.62858e-09
-1.66143e-09
-1.69878e-09
-1.74223e-09
-1.79427e-09
-1.85736e-09
-1.93095e-09
-2.03194e-09
-3.06857e-11
-4.05557e-11
-6.00293e-11
-8.27188e-11
-1.05256e-10
-1.27544e-10
-1.49716e-10
-1.71872e-10
-1.93954e-10
-2.15981e-10
-2.37973e-10
-2.60059e-10
-2.82063e-10
-3.04082e-10
-3.2612e-10
-3.48123e-10
-3.70158e-10
-3.92206e-10
-4.14165e-10
-4.36298e-10
-4.5834e-10
-4.80326e-10
-5.02379e-10
-5.24458e-10
-5.46452e-10
-5.68492e-10
-5.90481e-10
-6.12508e-10
-6.34552e-10
-6.56617e-10
-6.78634e-10
-7.00661e-10
-7.22714e-10
-7.44733e-10
-7.66783e-10
-7.88768e-10
-8.10802e-10
-8.32835e-10
-8.54917e-10
-8.76937e-10
-8.98962e-10
-9.21004e-10
-9.43003e-10
-9.65094e-10
-9.87096e-10
-1.00911e-09
-1.03118e-09
-1.05321e-09
-1.07524e-09
-1.09721e-09
-1.11929e-09
-1.14134e-09
-1.16338e-09
-1.18538e-09
-1.20737e-09
-1.22937e-09
-1.25151e-09
-1.27358e-09
-1.29561e-09
-1.31768e-09
-1.33982e-09
-1.36192e-09
-1.38412e-09
-1.40636e-09
-1.42878e-09
-1.4514e-09
-1.4742e-09
-1.49756e-09
-1.52138e-09
-1.546e-09
-1.57186e-09
-1.59935e-09
-1.62918e-09
-1.6623e-09
-1.69995e-09
-1.74382e-09
-1.79624e-09
-1.85973e-09
-1.93415e-09
-2.02013e-09
1.30483e-10
-1.60823e-11
-3.77777e-11
-6.00606e-11
-8.27591e-11
-1.05284e-10
-1.27537e-10
-1.49941e-10
-1.71899e-10
-1.93818e-10
-2.1595e-10
-2.38156e-10
-2.60013e-10
-2.82245e-10
-3.04109e-10
-3.2614e-10
-3.48174e-10
-3.70152e-10
-3.92198e-10
-4.14448e-10
-4.36301e-10
-4.5829e-10
-4.80524e-10
-5.02404e-10
-5.24404e-10
-5.46451e-10
-5.68499e-10
-5.90622e-10
-6.1254e-10
-6.3455e-10
-6.56634e-10
-6.78716e-10
-7.0066e-10
-7.22639e-10
-7.44734e-10
-7.66831e-10
-7.88766e-10
-8.10826e-10
-8.32836e-10
-8.54852e-10
-8.7694e-10
-8.98979e-10
-9.20988e-10
-9.42997e-10
-9.65167e-10
-9.86995e-10
-1.00919e-09
-1.0312e-09
-1.05308e-09
-1.07527e-09
-1.09745e-09
-1.11929e-09
-1.14132e-09
-1.16324e-09
-1.18542e-09
-1.20737e-09
-1.22973e-09
-1.25151e-09
-1.27359e-09
-1.29568e-09
-1.3177e-09
-1.33982e-09
-1.36194e-09
-1.38411e-09
-1.40661e-09
-1.42885e-09
-1.45142e-09
-1.47451e-09
-1.49758e-09
-1.52158e-09
-1.54627e-09
-1.57218e-09
-1.59969e-09
-1.62982e-09
-1.66306e-09
-1.70099e-09
-1.7452e-09
-1.79799e-09
-1.86199e-09
-1.9399e-09
-2.03554e-09
-2.14732e-09
1.18081e-10
-2.98849e-11
-3.91754e-11
-6.00991e-11
-8.27967e-11
-1.05288e-10
-1.27553e-10
-1.49667e-10
-1.71934e-10
-1.94025e-10
-2.15935e-10
-2.3807e-10
-2.60024e-10
-2.81849e-10
-3.04149e-10
-3.26159e-10
-3.4824e-10
-3.70109e-10
-3.92299e-10
-4.14171e-10
-4.36184e-10
-4.58257e-10
-4.80329e-10
-5.02402e-10
-5.2449e-10
-5.46475e-10
-5.68497e-10
-5.90486e-10
-6.12507e-10
-6.34546e-10
-6.56361e-10
-6.78652e-10
-7.00666e-10
-7.22695e-10
-7.44758e-10
-7.66749e-10
-7.88789e-10
-8.10791e-10
-8.32826e-10
-8.54862e-10
-8.76936e-10
-8.98978e-10
-9.20966e-10
-9.43006e-10
-9.65086e-10
-9.87072e-10
-1.00916e-09
-1.03097e-09
-1.05327e-09
-1.07521e-09
-1.09716e-09
-1.11934e-09
-1.14136e-09
-1.16339e-09
-1.18543e-09
-1.20736e-09
-1.22941e-09
-1.25152e-09
-1.27337e-09
-1.2956e-09
-1.31781e-09
-1.33972e-09
-1.36198e-09
-1.38427e-09
-1.40645e-09
-1.42885e-09
-1.45156e-09
-1.47438e-09
-1.49782e-09
-1.52176e-09
-1.5465e-09
-1.57242e-09
-1.60019e-09
-1.63018e-09
-1.66373e-09
-1.70188e-09
-1.74634e-09
-1.79942e-09
-1.86379e-09
-1.94073e-09
-2.02627e-09
-2.15965e-09
-2.3523e-09
1.12834e-10
-1.67562e-11
-3.71075e-11
-6.00099e-11
-8.28288e-11
-1.05221e-10
-1.27561e-10
-1.49919e-10
-1.71812e-10
-1.93933e-10
-2.15994e-10
-2.38034e-10
-2.60036e-10
-2.82214e-10
-3.04076e-10
-3.26193e-10
-3.47779e-10
-3.70262e-10
-3.92146e-10
-4.14303e-10
-4.36342e-10
-4.58335e-10
-4.80351e-10
-5.02392e-10
-5.24262e-10
-5.46572e-10
-5.68304e-10
-5.90456e-10
-6.12552e-10
-6.34503e-10
-6.56786e-10
-6.78647e-10
-7.00691e-10
-7.22682e-10
-7.44662e-10
-7.6677e-10
-7.88743e-10
-8.10774e-10
-8.32843e-10
-8.5487e-10
-8.76885e-10
-8.9898e-10
-9.2098e-10
-9.43038e-10
-9.65082e-10
-9.87051e-10
-1.00911e-09
-1.03118e-09
-1.05306e-09
-1.07528e-09
-1.09726e-09
-1.11931e-09
-1.14112e-09
-1.16332e-09
-1.18539e-09
-1.20739e-09
-1.2295e-09
-1.25153e-09
-1.27369e-09
-1.29567e-09
-1.31749e-09
-1.34003e-09
-1.36181e-09
-1.38414e-09
-1.4065e-09
-1.42895e-09
-1.45156e-09
-1.47455e-09
-1.49791e-09
-1.52191e-09
-1.54669e-09
-1.57262e-09
-1.60049e-09
-1.63064e-09
-1.66417e-09
-1.7025e-09
-1.7472e-09
-1.80051e-09
-1.86519e-09
-1.94448e-09
-2.04034e-09
-2.16674e-09
-2.35167e-09
1.07687e-10
-2.46459e-11
-3.80539e-11
-6.00729e-11
-8.27782e-11
-1.05355e-10
-1.27561e-10
-1.49688e-10
-1.71919e-10
-1.93749e-10
-2.16178e-10
-2.38026e-10
-2.59923e-10
-2.82119e-10
-3.04171e-10
-3.25899e-10
-3.48284e-10
-3.70093e-10
-3.92342e-10
-4.1424e-10
-4.36191e-10
-4.58156e-10
-4.80214e-10
-5.02388e-10
-5.2442e-10
-5.46465e-10
-5.68523e-10
-5.90459e-10
-6.12522e-10
-6.34563e-10
-6.56464e-10
-6.78587e-10
-7.00449e-10
-7.2266e-10
-7.44645e-10
-7.66797e-10
-7.88745e-10
-8.10775e-10
-8.32845e-10
-8.54837e-10
-8.76887e-10
-8.98931e-10
-9.20989e-10
-9.43014e-10
-9.65068e-10
-9.87022e-10
-1.00911e-09
-1.03106e-09
-1.05323e-09
-1.07529e-09
-1.09723e-09
-1.11911e-09
-1.14126e-09
-1.16333e-09
-1.18546e-09
-1.20737e-09
-1.22948e-09
-1.2516e-09
-1.27342e-09
-1.29544e-09
-1.3179e-09
-1.33976e-09
-1.36213e-09
-1.38423e-09
-1.40657e-09
-1.42894e-09
-1.45164e-09
-1.4746e-09
-1.49796e-09
-1.522e-09
-1.54687e-09
-1.5728e-09
-1.60064e-09
-1.63089e-09
-1.66468e-09
-1.7031e-09
-1.74778e-09
-1.80122e-09
-1.86605e-09
-1.94468e-09
-2.03454e-09
-2.16872e-09
-2.34885e-09
1.05078e-10
-2.46267e-11
-3.80532e-11
-6.00548e-11
-8.27843e-11
-1.05284e-10
-1.27581e-10
-1.49789e-10
-1.71902e-10
-1.94148e-10
-2.15791e-10
-2.38044e-10
-2.60235e-10
-2.81851e-10
-3.04112e-10
-3.26191e-10
-3.47777e-10
-3.70081e-10
-3.92198e-10
-4.14189e-10
-4.36423e-10
-4.5835e-10
-4.80446e-10
-5.02341e-10
-5.24399e-10
-5.46256e-10
-5.68403e-10
-5.90469e-10
-6.12507e-10
-6.34492e-10
-6.56631e-10
-6.7858e-10
-7.0076e-10
-7.22673e-10
-7.44593e-10
-7.6676e-10
-7.88761e-10
-8.10771e-10
-8.32886e-10
-8.54836e-10
-8.76908e-10
-8.98933e-10
-9.20981e-10
-9.43052e-10
-9.65061e-10
-9.87001e-10
-1.00914e-09
-1.03115e-09
-1.05289e-09
-1.07514e-09
-1.09727e-09
-1.11928e-09
-1.14128e-09
-1.16329e-09
-1.18538e-09
-1.20746e-09
-1.22945e-09
-1.25136e-09
-1.27357e-09
-1.29567e-09
-1.31763e-09
-1.33988e-09
-1.36183e-09
-1.38432e-09
-1.40661e-09
-1.42905e-09
-1.45162e-09
-1.47467e-09
-1.49797e-09
-1.52216e-09
-1.54678e-09
-1.57312e-09
-1.60068e-09
-1.63116e-09
-1.66484e-09
-1.70302e-09
-1.74809e-09
-1.80154e-09
-1.86642e-09
-1.94491e-09
-2.03492e-09
-2.16923e-09
-2.34847e-09
1.05472e-10
-1.71375e-11
-3.71705e-11
-6.00359e-11
-8.27883e-11
-1.05318e-10
-1.27478e-10
-1.49868e-10
-1.7188e-10
-1.93739e-10
-2.162e-10
-2.3805e-10
-2.59748e-10
-2.82337e-10
-3.04031e-10
-3.26195e-10
-3.47968e-10
-3.70257e-10
-3.92274e-10
-4.14363e-10
-4.36144e-10
-4.58308e-10
-4.80187e-10
-5.02345e-10
-5.24275e-10
-5.46462e-10
-5.68423e-10
-5.9045e-10
-6.12614e-10
-6.34598e-10
-6.56515e-10
-6.78604e-10
-7.00553e-10
-7.22557e-10
-7.44886e-10
-7.6673e-10
-7.88763e-10
-8.10777e-10
-8.32901e-10
-8.54798e-10
-8.76936e-10
-8.98912e-10
-9.20976e-10
-9.43048e-10
-9.6507e-10
-9.87048e-10
-1.00907e-09
-1.03112e-09
-1.0531e-09
-1.07535e-09
-1.09726e-09
-1.11924e-09
-1.14112e-09
-1.16335e-09
-1.1854e-09
-1.20741e-09
-1.22947e-09
-1.25154e-09
-1.27357e-09
-1.29563e-09
-1.31781e-09
-1.33988e-09
-1.36216e-09
-1.3842e-09
-1.40643e-09
-1.42905e-09
-1.45172e-09
-1.47474e-09
-1.49824e-09
-1.52204e-09
-1.54702e-09
-1.5729e-09
-1.60112e-09
-1.63119e-09
-1.66477e-09
-1.70347e-09
-1.74805e-09
-1.80148e-09
-1.86628e-09
-1.94575e-09
-2.04213e-09
-2.16852e-09
-2.35027e-09
1.09535e-10
-2.9658e-11
-3.91111e-11
-6.01129e-11
-8.27773e-11
-1.0526e-10
-1.27651e-10
-1.49631e-10
-1.71911e-10
-1.9397e-10
-2.15854e-10
-2.38068e-10
-2.60285e-10
-2.81754e-10
-3.04135e-10
-3.26053e-10
-3.48087e-10
-3.69864e-10
-3.92161e-10
-4.14128e-10
-4.36402e-10
-4.58284e-10
-4.80406e-10
-5.02343e-10
-5.24362e-10
-5.46457e-10
-5.68368e-10
-5.90497e-10
-6.12322e-10
-6.345e-10
-6.56661e-10
-6.78524e-10
-7.00641e-10
-7.22798e-10
-7.44499e-10
-7.66717e-10
-7.88782e-10
-8.10778e-10
-8.32913e-10
-8.54817e-10
-8.76946e-10
-8.9891e-10
-9.20993e-10
-9.43051e-10
-9.651e-10
-9.87047e-10
-1.00911e-09
-1.03114e-09
-1.0531e-09
-1.0751e-09
-1.09733e-09
-1.11923e-09
-1.14108e-09
-1.16334e-09
-1.18534e-09
-1.2075e-09
-1.22943e-09
-1.25157e-09
-1.27361e-09
-1.29561e-09
-1.31776e-09
-1.33976e-09
-1.36195e-09
-1.38435e-09
-1.40668e-09
-1.42904e-09
-1.45177e-09
-1.47471e-09
-1.4982e-09
-1.52211e-09
-1.54706e-09
-1.57324e-09
-1.60073e-09
-1.63114e-09
-1.6649e-09
-1.70304e-09
-1.74773e-09
-1.80105e-09
-1.8656e-09
-1.94305e-09
-2.02797e-09
-2.16506e-09
-2.35322e-09
1.22757e-10
-1.62599e-11
-3.78643e-11
-6.0047e-11
-8.27511e-11
-1.05294e-10
-1.27585e-10
-1.49756e-10
-1.7191e-10
-1.93942e-10
-2.16105e-10
-2.38003e-10
-2.59827e-10
-2.82315e-10
-3.04049e-10
-3.26195e-10
-3.48031e-10
-3.70218e-10
-3.92342e-10
-4.14337e-10
-4.36221e-10
-4.58311e-10
-4.80248e-10
-5.0234e-10
-5.2437e-10
-5.46342e-10
-5.68568e-10
-5.90455e-10
-6.12552e-10
-6.34517e-10
-6.56486e-10
-6.78588e-10
-7.00796e-10
-7.22409e-10
-7.44856e-10
-7.66814e-10
-7.88698e-10
-8.10809e-10
-8.32909e-10
-8.54827e-10
-8.76962e-10
-8.98922e-10
-9.2105e-10
-9.43047e-10
-9.65139e-10
-9.87029e-10
-1.00917e-09
-1.03121e-09
-1.05309e-09
-1.0752e-09
-1.09717e-09
-1.11927e-09
-1.14147e-09
-1.16333e-09
-1.18537e-09
-1.20735e-09
-1.22959e-09
-1.25142e-09
-1.27359e-09
-1.29568e-09
-1.31791e-09
-1.3399e-09
-1.36213e-09
-1.38422e-09
-1.40676e-09
-1.4291e-09
-1.4517e-09
-1.47492e-09
-1.49802e-09
-1.52228e-09
-1.54692e-09
-1.57299e-09
-1.60087e-09
-1.63103e-09
-1.6646e-09
-1.70274e-09
-1.74722e-09
-1.80025e-09
-1.86449e-09
-1.94267e-09
-2.03869e-09
-2.15611e-09
-2.35592e-09
1.42539e-10
-3.07298e-11
-4.0507e-11
-6.00413e-11
-8.27001e-11
-1.05243e-10
-1.27565e-10
-1.49745e-10
-1.71868e-10
-1.93944e-10
-2.15945e-10
-2.38055e-10
-2.60081e-10
-2.81921e-10
-3.04065e-10
-3.26078e-10
-3.48048e-10
-3.70157e-10
-3.92131e-10
-4.14172e-10
-4.36239e-10
-4.58288e-10
-4.80303e-10
-5.02355e-10
-5.2436e-10
-5.46456e-10
-5.6836e-10
-5.90457e-10
-6.12509e-10
-6.34551e-10
-6.56565e-10
-6.78565e-10
-7.00532e-10
-7.22701e-10
-7.44656e-10
-7.66665e-10
-7.8886e-10
-8.10814e-10
-8.32886e-10
-8.5487e-10
-8.76943e-10
-8.98929e-10
-9.21033e-10
-9.4303e-10
-9.65066e-10
-9.87093e-10
-1.00913e-09
-1.03111e-09
-1.05316e-09
-1.07519e-09
-1.09725e-09
-1.11926e-09
-1.14113e-09
-1.16335e-09
-1.18537e-09
-1.20743e-09
-1.22935e-09
-1.25156e-09
-1.27359e-09
-1.29567e-09
-1.31774e-09
-1.33991e-09
-1.36208e-09
-1.3843e-09
-1.4066e-09
-1.42912e-09
-1.45181e-09
-1.47477e-09
-1.49827e-09
-1.52212e-09
-1.54701e-09
-1.57297e-09
-1.60069e-09
-1.63078e-09
-1.66417e-09
-1.70217e-09
-1.7464e-09
-1.79911e-09
-1.86291e-09
-1.93761e-09
-2.02388e-09
-2.14413e-09
-1.50458e-11
-4.04151e-11
-5.98108e-11
-8.26033e-11
-1.05227e-10
-1.27561e-10
-1.49745e-10
-1.71868e-10
-1.93948e-10
-2.15979e-10
-2.3803e-10
-2.60009e-10
-2.82147e-10
-3.04047e-10
-3.26106e-10
-3.48103e-10
-3.70157e-10
-3.92188e-10
-4.14293e-10
-4.36272e-10
-4.58319e-10
-4.80338e-10
-5.02362e-10
-5.24409e-10
-5.46401e-10
-5.68493e-10
-5.90488e-10
-6.125e-10
-6.34537e-10
-6.56611e-10
-6.78588e-10
-7.00736e-10
-7.22647e-10
-7.44738e-10
-7.66804e-10
-7.88809e-10
-8.10841e-10
-8.32907e-10
-8.54893e-10
-8.76952e-10
-8.98974e-10
-9.21054e-10
-9.43022e-10
-9.65108e-10
-9.87096e-10
-1.00914e-09
-1.03118e-09
-1.05317e-09
-1.07521e-09
-1.09725e-09
-1.1193e-09
-1.14138e-09
-1.16336e-09
-1.18538e-09
-1.20743e-09
-1.22954e-09
-1.25159e-09
-1.27358e-09
-1.29569e-09
-1.3178e-09
-1.33994e-09
-1.36209e-09
-1.38433e-09
-1.40669e-09
-1.42916e-09
-1.45179e-09
-1.47482e-09
-1.4981e-09
-1.52217e-09
-1.54688e-09
-1.57285e-09
-1.60055e-09
-1.63047e-09
-1.66373e-09
-1.70144e-09
-1.74536e-09
-1.79769e-09
-1.86115e-09
-1.93511e-09
-2.03634e-09
9.52373e-14
-4.00291e-11
-5.94478e-11
-8.2415e-11
-1.0511e-10
-1.27483e-10
-1.49696e-10
-1.71832e-10
-1.93914e-10
-2.15957e-10
-2.38015e-10
-2.60023e-10
-2.82001e-10
-3.04036e-10
-3.26119e-10
-3.48061e-10
-3.70135e-10
-3.92178e-10
-4.142e-10
-4.36236e-10
-4.58282e-10
-4.80301e-10
-5.02406e-10
-5.24354e-10
-5.46406e-10
-5.68438e-10
-5.90459e-10
-6.1251e-10
-6.34503e-10
-6.56544e-10
-6.78606e-10
-7.00631e-10
-7.22634e-10
-7.44732e-10
-7.66763e-10
-7.88791e-10
-8.10854e-10
-8.32833e-10
-8.54901e-10
-8.76929e-10
-8.98919e-10
-9.21026e-10
-9.42977e-10
-9.65074e-10
-9.87101e-10
-1.00914e-09
-1.03114e-09
-1.05316e-09
-1.0752e-09
-1.09727e-09
-1.11925e-09
-1.14125e-09
-1.16336e-09
-1.18538e-09
-1.20744e-09
-1.22943e-09
-1.25153e-09
-1.27359e-09
-1.29568e-09
-1.31782e-09
-1.33988e-09
-1.36209e-09
-1.38432e-09
-1.40667e-09
-1.42911e-09
-1.45174e-09
-1.47474e-09
-1.4981e-09
-1.52198e-09
-1.54675e-09
-1.57257e-09
-1.60008e-09
-1.62984e-09
-1.66292e-09
-1.70044e-09
-1.74405e-09
-1.79596e-09
-1.85896e-09
-1.93149e-09
-2.04842e-09
-1.45899e-11
-3.22374e-11
-5.73911e-11
-8.16133e-11
-1.04685e-10
-1.27259e-10
-1.49574e-10
-1.71713e-10
-1.93846e-10
-2.15928e-10
-2.37967e-10
-2.60016e-10
-2.82044e-10
-3.04079e-10
-3.2609e-10
-3.48108e-10
-3.70186e-10
-3.92228e-10
-4.14281e-10
-4.3632e-10
-4.58347e-10
-4.80384e-10
-5.02374e-10
-5.24437e-10
-5.4646e-10
-5.68507e-10
-5.90563e-10
-6.12575e-10
-6.34613e-10
-6.56648e-10
-6.78662e-10
-7.00694e-10
-7.22692e-10
-7.44705e-10
-7.66794e-10
-7.88821e-10
-8.10857e-10
-8.32839e-10
-8.54882e-10
-8.76971e-10
-8.98977e-10
-9.20972e-10
-9.43045e-10
-9.65003e-10
-9.87099e-10
-1.00913e-09
-1.03119e-09
-1.05322e-09
-1.07523e-09
-1.09726e-09
-1.11929e-09
-1.14132e-09
-1.16334e-09
-1.18537e-09
-1.20744e-09
-1.22945e-09
-1.2515e-09
-1.27346e-09
-1.29554e-09
-1.31757e-09
-1.33967e-09
-1.36174e-09
-1.38382e-09
-1.40599e-09
-1.42832e-09
-1.45065e-09
-1.47329e-09
-1.49622e-09
-1.51962e-09
-1.54358e-09
-1.56841e-09
-1.59481e-09
-1.62296e-09
-1.65385e-09
-1.6886e-09
-1.72882e-09
-1.7769e-09
-1.83627e-09
-1.91042e-09
-1.99844e-09
1.4673e-10
-2.42294e-11
-3.36331e-11
-5.79857e-11
-8.18697e-11
-1.04843e-10
-1.27351e-10
-1.49636e-10
-1.71767e-10
-1.93875e-10
-2.15966e-10
-2.37981e-10
-2.60012e-10
-2.82059e-10
-3.04046e-10
-3.26144e-10
-3.48135e-10
-3.70201e-10
-3.9222e-10
-4.143e-10
-4.36342e-10
-4.5833e-10
-4.80364e-10
-5.02446e-10
-5.24462e-10
-5.46494e-10
-5.68503e-10
-5.90568e-10
-6.12574e-10
-6.34686e-10
-6.56661e-10
-6.7868e-10
-7.00708e-10
-7.22726e-10
-7.44764e-10
-7.66791e-10
-7.88842e-10
-8.10891e-10
-8.32879e-10
-8.54896e-10
-8.76965e-10
-8.9899e-10
-9.21022e-10
-9.43044e-10
-9.65125e-10
-9.87107e-10
-1.00918e-09
-1.03119e-09
-1.05325e-09
-1.07522e-09
-1.09729e-09
-1.11932e-09
-1.14134e-09
-1.16335e-09
-1.18542e-09
-1.20741e-09
-1.22949e-09
-1.25149e-09
-1.27358e-09
-1.29559e-09
-1.31759e-09
-1.33969e-09
-1.36178e-09
-1.3839e-09
-1.40611e-09
-1.42838e-09
-1.4508e-09
-1.4735e-09
-1.49648e-09
-1.51988e-09
-1.54404e-09
-1.56925e-09
-1.59563e-09
-1.62413e-09
-1.65539e-09
-1.69069e-09
-1.7316e-09
-1.78048e-09
-1.84064e-09
-1.91552e-09
-1.99582e-09
-2.08618e-09
1.31797e-10
-9.01398e-12
-3.42795e-11
-5.8418e-11
-8.2049e-11
-1.04919e-10
-1.2739e-10
-1.49621e-10
-1.71772e-10
-1.93877e-10
-2.15912e-10
-2.38066e-10
-2.60046e-10
-2.81986e-10
-3.0412e-10
-3.26113e-10
-3.48013e-10
-3.70192e-10
-3.92245e-10
-4.14288e-10
-4.36335e-10
-4.58398e-10
-4.80347e-10
-5.02445e-10
-5.24463e-10
-5.46477e-10
-5.68498e-10
-5.90547e-10
-6.12555e-10
-6.34454e-10
-6.56668e-10
-6.78674e-10
-7.00526e-10
-7.22717e-10
-7.4467e-10
-7.66832e-10
-7.88844e-10
-8.10753e-10
-8.32884e-10
-8.54898e-10
-8.76931e-10
-8.9895e-10
-9.2103e-10
-9.43092e-10
-9.6511e-10
-9.87072e-10
-1.00913e-09
-1.0312e-09
-1.05326e-09
-1.07524e-09
-1.09722e-09
-1.11934e-09
-1.14134e-09
-1.16335e-09
-1.1854e-09
-1.20733e-09
-1.22955e-09
-1.25148e-09
-1.27329e-09
-1.29556e-09
-1.31759e-09
-1.33971e-09
-1.36183e-09
-1.38396e-09
-1.40606e-09
-1.42854e-09
-1.45086e-09
-1.47364e-09
-1.49669e-09
-1.52013e-09
-1.54445e-09
-1.56972e-09
-1.59647e-09
-1.62521e-09
-1.65693e-09
-1.69279e-09
-1.73441e-09
-1.78411e-09
-1.84509e-09
-1.92086e-09
-2.01767e-09
-2.0924e-09
-2.31253e-09
1.51357e-10
-1.35452e-11
-3.52442e-11
-5.885e-11
-8.22262e-11
-1.04992e-10
-1.27437e-10
-1.49676e-10
-1.7179e-10
-1.93891e-10
-2.15935e-10
-2.37977e-10
-2.60004e-10
-2.82037e-10
-3.04059e-10
-3.26172e-10
-3.48115e-10
-3.70177e-10
-3.92258e-10
-4.14307e-10
-4.36363e-10
-4.58234e-10
-4.80334e-10
-5.02489e-10
-5.24489e-10
-5.46479e-10
-5.68492e-10
-5.90514e-10
-6.12593e-10
-6.34728e-10
-6.56585e-10
-6.78669e-10
-7.00635e-10
-7.22709e-10
-7.4476e-10
-7.66684e-10
-7.88736e-10
-8.10882e-10
-8.32908e-10
-8.54811e-10
-8.76945e-10
-8.98971e-10
-9.20975e-10
-9.43093e-10
-9.64857e-10
-9.87177e-10
-1.00915e-09
-1.03121e-09
-1.05326e-09
-1.07514e-09
-1.09737e-09
-1.11935e-09
-1.14136e-09
-1.16328e-09
-1.18539e-09
-1.20733e-09
-1.22943e-09
-1.25148e-09
-1.2736e-09
-1.29568e-09
-1.31765e-09
-1.33965e-09
-1.36181e-09
-1.38403e-09
-1.40611e-09
-1.42867e-09
-1.45108e-09
-1.47379e-09
-1.49692e-09
-1.52046e-09
-1.54492e-09
-1.57025e-09
-1.59719e-09
-1.62627e-09
-1.65839e-09
-1.69472e-09
-1.73704e-09
-1.78748e-09
-1.8492e-09
-1.92546e-09
-2.01892e-09
-2.04906e-09
-2.3233e-09
1.14669e-10
-9.3153e-12
-3.58459e-11
-5.92317e-11
-8.24132e-11
-1.05086e-10
-1.27487e-10
-1.49737e-10
-1.71816e-10
-1.93936e-10
-2.15979e-10
-2.38078e-10
-2.60014e-10
-2.82136e-10
-3.04186e-10
-3.26148e-10
-3.48034e-10
-3.70194e-10
-3.92273e-10
-4.14313e-10
-4.36309e-10
-4.58365e-10
-4.80365e-10
-5.02382e-10
-5.24485e-10
-5.46472e-10
-5.68503e-10
-5.90525e-10
-6.12617e-10
-6.34574e-10
-6.56685e-10
-6.78645e-10
-7.00681e-10
-7.22681e-10
-7.44708e-10
-7.66806e-10
-7.88851e-10
-8.10781e-10
-8.32912e-10
-8.54931e-10
-8.76945e-10
-8.98896e-10
-9.21021e-10
-9.43071e-10
-9.65079e-10
-9.87196e-10
-1.00915e-09
-1.03114e-09
-1.05326e-09
-1.07528e-09
-1.09729e-09
-1.11941e-09
-1.14126e-09
-1.16338e-09
-1.18534e-09
-1.20745e-09
-1.22947e-09
-1.25149e-09
-1.27356e-09
-1.29567e-09
-1.31762e-09
-1.33982e-09
-1.36189e-09
-1.38395e-09
-1.40638e-09
-1.42862e-09
-1.45109e-09
-1.47409e-09
-1.49708e-09
-1.52081e-09
-1.54524e-09
-1.57084e-09
-1.59798e-09
-1.62729e-09
-1.65977e-09
-1.69659e-09
-1.73952e-09
-1.79063e-09
-1.85303e-09
-1.93009e-09
-2.02882e-09
-2.09131e-09
-2.314e-09
9.04789e-11
-1.41061e-11
-3.75077e-11
-5.97549e-11
-8.26534e-11
-1.05228e-10
-1.27637e-10
-1.49777e-10
-1.71933e-10
-1.93969e-10
-2.16015e-10
-2.38166e-10
-2.60149e-10
-2.81935e-10
-3.04261e-10
-3.2611e-10
-3.48308e-10
-3.70257e-10
-3.92315e-10
-4.1431e-10
-4.3647e-10
-4.58216e-10
-4.80408e-10
-5.02539e-10
-5.24461e-10
-5.46467e-10
-5.68573e-10
-5.90524e-10
-6.12642e-10
-6.34622e-10
-6.56782e-10
-6.78637e-10
-7.00721e-10
-7.22803e-10
-7.44735e-10
-7.66563e-10
-7.88881e-10
-8.10859e-10
-8.32988e-10
-8.54889e-10
-8.77035e-10
-8.99024e-10
-9.20992e-10
-9.43146e-10
-9.65098e-10
-9.87232e-10
-1.00917e-09
-1.03122e-09
-1.05323e-09
-1.07531e-09
-1.09721e-09
-1.11932e-09
-1.14145e-09
-1.1634e-09
-1.18555e-09
-1.20743e-09
-1.2297e-09
-1.25156e-09
-1.2736e-09
-1.2957e-09
-1.31773e-09
-1.33979e-09
-1.36196e-09
-1.38409e-09
-1.4063e-09
-1.42881e-09
-1.45135e-09
-1.47421e-09
-1.49736e-09
-1.52112e-09
-1.54572e-09
-1.57133e-09
-1.59867e-09
-1.62827e-09
-1.66105e-09
-1.69827e-09
-1.74167e-09
-1.79341e-09
-1.85631e-09
-1.93294e-09
-2.03e-09
-2.13998e-09
-2.31063e-09
8.00787e-11
-1.76257e-11
-3.836e-11
-6.00458e-11
-8.28262e-11
-1.05307e-10
-1.27672e-10
-1.498e-10
-1.71925e-10
-1.93987e-10
-2.16039e-10
-2.38024e-10
-2.60081e-10
-2.8215e-10
-3.04081e-10
-3.26228e-10
-3.47973e-10
-3.70299e-10
-3.92321e-10
-4.14194e-10
-4.36176e-10
-4.58418e-10
-4.80292e-10
-5.02438e-10
-5.24615e-10
-5.46413e-10
-5.68553e-10
-5.90544e-10
-6.12471e-10
-6.34636e-10
-6.56724e-10
-6.78618e-10
-7.00686e-10
-7.2267e-10
-7.44719e-10
-7.66791e-10
-7.88847e-10
-8.10862e-10
-8.32985e-10
-8.54897e-10
-8.76992e-10
-8.99013e-10
-9.21015e-10
-9.43141e-10
-9.6494e-10
-9.87205e-10
-1.00914e-09
-1.03123e-09
-1.05335e-09
-1.07523e-09
-1.09725e-09
-1.11938e-09
-1.14137e-09
-1.16344e-09
-1.18521e-09
-1.20762e-09
-1.22926e-09
-1.25149e-09
-1.27362e-09
-1.29569e-09
-1.31774e-09
-1.33981e-09
-1.36201e-09
-1.38412e-09
-1.40633e-09
-1.42879e-09
-1.4515e-09
-1.4741e-09
-1.49754e-09
-1.52135e-09
-1.54595e-09
-1.57176e-09
-1.59922e-09
-1.62901e-09
-1.66203e-09
-1.69957e-09
-1.74335e-09
-1.79558e-09
-1.85889e-09
-1.93553e-09
-2.03049e-09
-2.1569e-09
-2.30935e-09
5.27172e-11
-1.63225e-11
-3.76183e-11
-6.0176e-11
-8.28714e-11
-1.05376e-10
-1.27692e-10
-1.49852e-10
-1.71941e-10
-1.94001e-10
-2.16041e-10
-2.38037e-10
-2.60156e-10
-2.82176e-10
-3.04061e-10
-3.26233e-10
-3.48195e-10
-3.70343e-10
-3.92294e-10
-4.1419e-10
-4.36294e-10
-4.58417e-10
-4.80542e-10
-5.02498e-10
-5.24268e-10
-5.46509e-10
-5.68546e-10
-5.90512e-10
-6.12669e-10
-6.34613e-10
-6.56732e-10
-6.78571e-10
-7.00807e-10
-7.22697e-10
-7.44703e-10
-7.66747e-10
-7.88857e-10
-8.10809e-10
-8.32966e-10
-8.54979e-10
-8.7698e-10
-8.98975e-10
-9.20995e-10
-9.43138e-10
-9.65e-10
-9.87212e-10
-1.00915e-09
-1.03123e-09
-1.05318e-09
-1.07527e-09
-1.09735e-09
-1.1193e-09
-1.14123e-09
-1.16342e-09
-1.18537e-09
-1.20764e-09
-1.2296e-09
-1.2515e-09
-1.27364e-09
-1.2957e-09
-1.31772e-09
-1.33984e-09
-1.36207e-09
-1.38403e-09
-1.40639e-09
-1.4291e-09
-1.45132e-09
-1.47469e-09
-1.49757e-09
-1.52155e-09
-1.54617e-09
-1.57217e-09
-1.59968e-09
-1.62962e-09
-1.66284e-09
-1.7007e-09
-1.74478e-09
-1.79739e-09
-1.86119e-09
-1.93913e-09
-2.0349e-09
-2.19717e-09
-2.31102e-09
5.0424e-11
-1.95861e-11
-3.86803e-11
-6.02962e-11
-8.29375e-11
-1.05387e-10
-1.27721e-10
-1.49834e-10
-1.7195e-10
-1.94019e-10
-2.16039e-10
-2.37916e-10
-2.60128e-10
-2.82032e-10
-3.04334e-10
-3.26e-10
-3.48417e-10
-3.70116e-10
-3.92165e-10
-4.14266e-10
-4.36316e-10
-4.58322e-10
-4.80312e-10
-5.02262e-10
-5.24653e-10
-5.46475e-10
-5.68476e-10
-5.90582e-10
-6.12524e-10
-6.34689e-10
-6.5644e-10
-6.78686e-10
-7.0078e-10
-7.22731e-10
-7.44758e-10
-7.6662e-10
-7.88824e-10
-8.10802e-10
-8.3295e-10
-8.54957e-10
-8.76982e-10
-8.98959e-10
-9.21025e-10
-9.43106e-10
-9.65008e-10
-9.8717e-10
-1.0091e-09
-1.03116e-09
-1.05339e-09
-1.07515e-09
-1.09731e-09
-1.11921e-09
-1.14164e-09
-1.16347e-09
-1.1854e-09
-1.20751e-09
-1.22939e-09
-1.25133e-09
-1.27363e-09
-1.2958e-09
-1.3178e-09
-1.33985e-09
-1.36203e-09
-1.38423e-09
-1.40646e-09
-1.42889e-09
-1.45167e-09
-1.47433e-09
-1.49784e-09
-1.52163e-09
-1.54651e-09
-1.57238e-09
-1.60009e-09
-1.63016e-09
-1.66351e-09
-1.70159e-09
-1.74595e-09
-1.79884e-09
-1.86295e-09
-1.94034e-09
-2.03383e-09
-2.19727e-09
-2.31286e-09
4.94085e-11
-1.54548e-11
-3.75176e-11
-6.02872e-11
-8.30036e-11
-1.05403e-10
-1.27691e-10
-1.49928e-10
-1.71904e-10
-1.94037e-10
-2.15971e-10
-2.38205e-10
-2.60112e-10
-2.82149e-10
-3.03886e-10
-3.26368e-10
-3.47985e-10
-3.70474e-10
-3.9221e-10
-4.14234e-10
-4.36132e-10
-4.58597e-10
-4.80354e-10
-5.02359e-10
-5.24396e-10
-5.46441e-10
-5.68578e-10
-5.90424e-10
-6.12615e-10
-6.34557e-10
-6.56841e-10
-6.78445e-10
-7.00795e-10
-7.22789e-10
-7.44726e-10
-7.666e-10
-7.88859e-10
-8.10806e-10
-8.32913e-10
-8.54916e-10
-8.77008e-10
-8.98947e-10
-9.21036e-10
-9.43055e-10
-9.65001e-10
-9.87169e-10
-1.00911e-09
-1.03134e-09
-1.05321e-09
-1.07517e-09
-1.09729e-09
-1.11934e-09
-1.1413e-09
-1.16342e-09
-1.18516e-09
-1.20753e-09
-1.22955e-09
-1.2515e-09
-1.27386e-09
-1.29573e-09
-1.31747e-09
-1.33994e-09
-1.36203e-09
-1.38427e-09
-1.40645e-09
-1.4291e-09
-1.45137e-09
-1.47484e-09
-1.49787e-09
-1.52191e-09
-1.54656e-09
-1.57264e-09
-1.60041e-09
-1.63059e-09
-1.66404e-09
-1.70228e-09
-1.74679e-09
-1.79994e-09
-1.86432e-09
-1.94304e-09
-2.03976e-09
-2.19918e-09
-2.31425e-09
4.83168e-11
-1.75668e-11
-3.81912e-11
-6.03395e-11
-8.29625e-11
-1.05438e-10
-1.27721e-10
-1.49686e-10
-1.71959e-10
-1.93965e-10
-2.16185e-10
-2.37979e-10
-2.6012e-10
-2.82104e-10
-3.04377e-10
-3.2594e-10
-3.48545e-10
-3.69951e-10
-3.9229e-10
-4.14273e-10
-4.3624e-10
-4.581e-10
-4.80366e-10
-5.02526e-10
-5.24472e-10
-5.46503e-10
-5.68289e-10
-5.90565e-10
-6.12545e-10
-6.34678e-10
-6.56568e-10
-6.78706e-10
-7.00583e-10
-7.22674e-10
-7.44795e-10
-7.66615e-10
-7.88862e-10
-8.10799e-10
-8.32873e-10
-8.54924e-10
-8.77e-10
-8.98955e-10
-9.21028e-10
-9.43033e-10
-9.65038e-10
-9.87174e-10
-1.0091e-09
-1.03117e-09
-1.0534e-09
-1.07526e-09
-1.09707e-09
-1.11933e-09
-1.14148e-09
-1.16342e-09
-1.18554e-09
-1.20746e-09
-1.22931e-09
-1.2515e-09
-1.27362e-09
-1.29573e-09
-1.31794e-09
-1.33965e-09
-1.36207e-09
-1.38426e-09
-1.4065e-09
-1.42902e-09
-1.45187e-09
-1.47462e-09
-1.49806e-09
-1.52184e-09
-1.54677e-09
-1.57283e-09
-1.60076e-09
-1.63074e-09
-1.66447e-09
-1.70276e-09
-1.74741e-09
-1.80065e-09
-1.86516e-09
-1.9436e-09
-2.0388e-09
-2.19952e-09
-2.31591e-09
4.82482e-11
-1.76012e-11
-3.82017e-11
-6.03258e-11
-8.29726e-11
-1.05425e-10
-1.27714e-10
-1.49885e-10
-1.71948e-10
-1.94053e-10
-2.15891e-10
-2.38079e-10
-2.60315e-10
-2.82064e-10
-3.03917e-10
-3.26151e-10
-3.48192e-10
-3.70377e-10
-3.91996e-10
-4.14154e-10
-4.36383e-10
-4.58572e-10
-4.80408e-10
-5.02215e-10
-5.24527e-10
-5.46255e-10
-5.68611e-10
-5.90546e-10
-6.12399e-10
-6.34572e-10
-6.56536e-10
-6.78712e-10
-7.00784e-10
-7.22618e-10
-7.44746e-10
-7.66729e-10
-7.88786e-10
-8.10836e-10
-8.32814e-10
-8.54971e-10
-8.76946e-10
-8.99051e-10
-9.2103e-10
-9.43017e-10
-9.65044e-10
-9.87189e-10
-1.00909e-09
-1.03116e-09
-1.05336e-09
-1.07502e-09
-1.09727e-09
-1.11933e-09
-1.14131e-09
-1.1634e-09
-1.18518e-09
-1.20744e-09
-1.2298e-09
-1.25155e-09
-1.27359e-09
-1.29573e-09
-1.31749e-09
-1.33995e-09
-1.36207e-09
-1.38428e-09
-1.40657e-09
-1.42913e-09
-1.45147e-09
-1.47481e-09
-1.49794e-09
-1.52215e-09
-1.54688e-09
-1.57294e-09
-1.60076e-09
-1.63106e-09
-1.66468e-09
-1.70297e-09
-1.74765e-09
-1.80099e-09
-1.86553e-09
-1.94396e-09
-2.03934e-09
-2.19997e-09
-2.31658e-09
4.941e-11
-1.56667e-11
-3.76298e-11
-6.02999e-11
-8.29474e-11
-1.05427e-10
-1.27666e-10
-1.49879e-10
-1.71899e-10
-1.93998e-10
-2.16107e-10
-2.38076e-10
-2.60139e-10
-2.82153e-10
-3.04139e-10
-3.26008e-10
-3.48508e-10
-3.70215e-10
-3.92031e-10
-4.14363e-10
-4.36141e-10
-4.58396e-10
-4.80135e-10
-5.02484e-10
-5.24522e-10
-5.4653e-10
-5.68422e-10
-5.90525e-10
-6.12407e-10
-6.34601e-10
-6.56774e-10
-6.78737e-10
-7.00662e-10
-7.22647e-10
-7.44698e-10
-7.66762e-10
-7.88858e-10
-8.10829e-10
-8.32787e-10
-8.54985e-10
-8.76937e-10
-8.99083e-10
-9.21033e-10
-9.43002e-10
-9.65041e-10
-9.87174e-10
-1.00909e-09
-1.03114e-09
-1.05343e-09
-1.07531e-09
-1.09713e-09
-1.11926e-09
-1.14149e-09
-1.16342e-09
-1.18555e-09
-1.20741e-09
-1.22916e-09
-1.25155e-09
-1.27363e-09
-1.29578e-09
-1.31782e-09
-1.33987e-09
-1.3621e-09
-1.3841e-09
-1.40657e-09
-1.42905e-09
-1.45199e-09
-1.47471e-09
-1.49819e-09
-1.52206e-09
-1.54697e-09
-1.57304e-09
-1.60091e-09
-1.63105e-09
-1.66473e-09
-1.70302e-09
-1.74779e-09
-1.80093e-09
-1.86541e-09
-1.94448e-09
-2.04134e-09
-2.20038e-09
-2.31611e-09
5.02548e-11
-1.96519e-11
-3.85739e-11
-6.02974e-11
-8.29089e-11
-1.05385e-10
-1.27706e-10
-1.49829e-10
-1.71934e-10
-1.9399e-10
-2.16082e-10
-2.3802e-10
-2.60175e-10
-2.82103e-10
-3.04102e-10
-3.26053e-10
-3.48227e-10
-3.70212e-10
-3.92077e-10
-4.1418e-10
-4.36387e-10
-4.58388e-10
-4.80438e-10
-5.02323e-10
-5.24261e-10
-5.46395e-10
-5.68512e-10
-5.90526e-10
-6.12657e-10
-6.34494e-10
-6.56292e-10
-6.7876e-10
-7.00643e-10
-7.22777e-10
-7.44689e-10
-7.66796e-10
-7.88771e-10
-8.10839e-10
-8.32779e-10
-8.55035e-10
-8.76913e-10
-8.99091e-10