/*--------------------------------*- C++ -*----------------------------------*\
| =========                 |                                                 |
| \\      /  F ield         | OpenFOAM: The Open Source CFD Toolbox           |
|  \\    /   O peration     | Version:  v1906                                 |
|   \\  /    A nd           | Web:      www.OpenFOAM.com                      |
|    \\/     M anipulation  |                                                 |
\*---------------------------------------------------------------------------*/
FoamFile
{
    version     2.0;
    format      ascii;
    class       volScalarField;
    location    "0.00028";
    object      p;
}
// * * * * * * * * * * * * * * * * * * * * * * * * * * * * * * * * * * * * * //

dimensions      [0 2 -2 0 0 0 0];


internalField   nonuniform List<scalar> 
243374
(
-0.627537
-0.781057
-0.796068
-0.802398
-0.806515
-0.809642
-0.81243
-0.815528
-0.819541
-0.82466
-0.830485
-0.836282
-0.841501
-0.845943
-0.849399
-0.851503
-0.852199
-0.851923
-0.850918
-0.848839
-0.845164
-0.839664
-0.83236
-0.823366
-0.812449
-0.7988
-0.781624
-0.760548
-0.734575
-0.701925
-0.661525
-0.612182
-0.55105
-0.474573
-0.379306
-0.26088
-0.113342
0.0703602
0.298973
0.583505
0.938536
1.38093
1.93757
2.62803
3.48664
4.55673
5.89003
7.54988
9.61747
12.1938
15.4026
19.3996
24.3787
30.5803
38.3042
47.9213
59.8931
74.7921
93.3275
116.378
145.026
180.606
224.756
279.475
347.196
430.847
533.926
660.549
815.475
1004.06
1232.11
1505.56
1829.86
2209.06
2644.37
3132.4
3662.61
4212.7
4732.05
5252.82
-0.714138
-0.78179
-0.795852
-0.802039
-0.806165
-0.809269
-0.811997
-0.815034
-0.819022
-0.824172
-0.830064
-0.83592
-0.84116
-0.845598
-0.849046
-0.851124
-0.851754
-0.851417
-0.850405
-0.848355
-0.844675
-0.839112
-0.831708
-0.822605
-0.811578
-0.797816
-0.780517
-0.759302
-0.733117
-0.700119
-0.659291
-0.609521
-0.54788
-0.470706
-0.374485
-0.254817
-0.105877
0.0797255
0.31077
0.598893
0.959712
1.40794
1.96564
2.66027
3.52678
4.60677
5.95241
7.62755
9.71429
12.3147
15.5535
19.5879
24.6138
30.8742
38.6714
48.3804
60.4676
75.5111
94.2275
117.505
146.436
182.372
226.966
282.238
350.645
435.146
539.266
667.154
823.597
1013.97
1244.06
1519.75
1846.39
2227.77
2664.78
3153.53
3682.98
4231.45
4756
5269.53
-0.745148
-0.784525
-0.796706
-0.802627
-0.806715
-0.809793
-0.812483
-0.815487
-0.819461
-0.824625
-0.83055
-0.836438
-0.841686
-0.84611
-0.84954
-0.851597
-0.852189
-0.851807
-0.850774
-0.848734
-0.845051
-0.839446
-0.831973
-0.822787
-0.811652
-0.797787
-0.780404
-0.759074
-0.732698
-0.69942
-0.658255
-0.608118
-0.546042
-0.468325
-0.371375
-0.25075
-0.100798
0.0861242
0.318398
0.607973
0.970295
1.42314
1.98554
2.68662
3.56025
4.64887
6.00516
7.69358
9.79692
12.4181
15.6828
19.7495
24.8159
31.1271
38.9878
48.7764
60.9635
76.1327
95.0067
118.482
147.662
183.909
228.893
284.655
353.673
438.933
543.993
673.035
830.878
1022.92
1254.98
1532.91
1861.98
2245.84
2685.14
3175.64
3705.83
4253.75
4782.01
5275.99
-0.79119
-0.765137
-0.786789
-0.796828
-0.802363
-0.806357
-0.809391
-0.812043
-0.815017
-0.818978
-0.824147
-0.830093
-0.836004
-0.841255
-0.84566
-0.849069
-0.851107
-0.85167
-0.851246
-0.850186
-0.848143
-0.844451
-0.838809
-0.831276
-0.822013
-0.810766
-0.796798
-0.779328
-0.757874
-0.731308
-0.697754
-0.656252
-0.605739
-0.543207
-0.464939
-0.36725
-0.245614
-0.0944204
0.0944097
0.32872
0.621447
0.98493
1.44029
2.00674
2.71283
3.59274
4.68923
6.05533
7.75615
9.87503
12.5157
15.8047
19.9018
25.0064
31.3654
39.2861
49.1498
61.4316
76.7199
95.7437
119.407
148.824
185.37
230.73
286.965
356.577
442.58
548.566
678.756
838.01
1031.77
1265.88
1546.19
1877.97
2264.77
2707.04
3200.28
3732.58
4281.85
4812.89
5286.82
5573.67
-0.793658
-0.776765
-0.789728
-0.797958
-0.803056
-0.806934
-0.809916
-0.812536
-0.815489
-0.819439
-0.824609
-0.830566
-0.836494
-0.841746
-0.846131
-0.849518
-0.851542
-0.852084
-0.851625
-0.850536
-0.848484
-0.844783
-0.839116
-0.831541
-0.822201
-0.81086
-0.796803
-0.779259
-0.757697
-0.730975
-0.697195
-0.655409
-0.604593
-0.541681
-0.462964
-0.364749
-0.242365
-0.090557
0.0993978
0.335887
0.630262
0.996597
1.4545
2.02468
2.7354
3.62103
4.72459
6.09948
7.81139
9.94417
12.6021
15.9129
20.0373
25.1761
31.578
39.5524
49.4838
61.8508
77.2468
96.4062
120.241
149.874
186.693
232.399
289.071
359.235
445.935
552.799
684.088
844.713
1040.17
1276.34
1559.14
1893.83
2283.94
2729.83
3226.79
3762.63
4314.98
4848.77
5322.39
5618.46
5801.2
-0.795938
-0.784105
-0.791836
-0.798444
-0.803078
-0.806807
-0.809728
-0.812316
-0.815255
-0.819196
-0.82436
-0.830317
-0.836252
-0.841501
-0.845863
-0.849227
-0.851242
-0.851772
-0.851284
-0.850162
-0.84809
-0.844374
-0.838687
-0.831081
-0.821676
-0.810247
-0.796108
-0.77849
-0.756816
-0.729948
-0.695965
-0.653909
-0.602812
-0.539541
-0.460213
-0.361493
-0.238213
-0.0846717
0.105224
0.342764
0.638598
1.00718
1.46734
2.04063
2.75527
3.64582
4.75548
6.13797
7.85955
10.0044
12.6774
16.0071
20.1554
25.3239
31.7633
39.7849
49.7757
62.2177
77.7085
96.9881
120.974
150.801
187.865
233.883
290.952
361.622
448.966
556.65
688.981
850.923
1048.04
1286.28
1571.64
1909.43
2303.22
2753.34
3255.01
3795.8
4353.09
4891.38
5366.32
5666.85
5853.87
-0.7981
-0.789482
-0.794064
-0.799404
-0.803595
-0.807166
-0.810023
-0.812587
-0.81552
-0.819455
-0.824607
-0.830554
-0.836488
-0.84173
-0.846067
-0.849408
-0.85142
-0.851949
-0.85144
-0.850282
-0.848181
-0.844448
-0.838751
-0.831132
-0.821684
-0.810188
-0.795983
-0.778305
-0.756544
-0.729546
-0.695417
-0.653163
-0.601891
-0.538424
-0.459085
-0.35935
-0.235425
-0.0813421
0.10978
0.348294
0.645482
1.0159
1.4781
2.05405
2.77205
3.6668
4.78166
6.17063
7.90049
10.0557
12.7416
16.0875
20.2562
25.4505
31.9222
39.9845
50.0268
62.534
78.1077
97.4926
121.613
151.611
188.893
235.191
292.62
363.753
451.694
560.147
693.469
856.69
1055.44
1295.78
1583.79
1924.91
2322.79
2777.84
3285.25
3832.48
4396.62
4941.4
5421.4
5724.5
5915.61
-0.800066
-0.79334
-0.795897
-0.800202
-0.803973
-0.807377
-0.810168
-0.812714
-0.815649
-0.819581
-0.824713
-0.830639
-0.836563
-0.841794
-0.846105
-0.849422
-0.851435
-0.851975
-0.851452
-0.850255
-0.848115
-0.84436
-0.838659
-0.831039
-0.821565
-0.810015
-0.795754
-0.778017
-0.756169
-0.729063
-0.694826
-0.652426
-0.600951
-0.537254
-0.457532
-0.357535
-0.233107
-0.0784922
0.113475
0.352787
0.651054
1.02291
1.48679
2.06488
2.78558
3.68374
4.80279
6.197
7.93358
10.0971
12.7934
16.1525
20.3379
25.5532
32.0514
40.1471
50.232
62.7933
78.436
97.9092
122.143
152.286
189.756
236.297
294.041
365.585
454.062
563.217
697.463
861.896
1062.24
1304.66
1595.38
1939.98
2342.31
2802.89
3317.01
3872.06
4444.79
4998.06
5486.24
5792.46
5988.03
-0.801837
-0.796152
-0.797344
-0.800804
-0.804196
-0.807435
-0.810161
-0.812696
-0.815644
-0.819575
-0.82468
-0.830574
-0.83648
-0.841696
-0.845978
-0.849271
-0.851291
-0.851852
-0.851322
-0.850085
-0.847898
-0.844116
-0.838418
-0.830812
-0.821333
-0.809747
-0.795442
-0.777651
-0.755722
-0.728542
-0.694244
-0.651766
-0.600109
-0.536239
-0.456282
-0.356049
-0.231241
-0.0761933
0.116325
0.356252
0.65535
1.02827
1.49345
2.07321
2.79595
3.69672
4.81897
6.21718
7.95895
10.1289
12.8332
16.2025
20.401
25.6327
32.1518
40.2737
50.3925
62.9971
78.6954
98.2404
122.567
152.831
190.458
237.206
295.223
367.127
456.085
565.881
700.986
866.575
1068.47
1312.97
1606.48
1954.79
2361.97
2828.77
3350.65
3915.01
4498.29
5062.41
5562.28
5871.76
6070.42
-0.803372
-0.798757
-0.799016
-0.801852
-0.804895
-0.80797
-0.810633
-0.813165
-0.816132
-0.820066
-0.825139
-0.83099
-0.836869
-0.842066
-0.846318
-0.849587
-0.851618
-0.852209
-0.851681
-0.850401
-0.848158
-0.844346
-0.838657
-0.831077
-0.821608
-0.810001
-0.795665
-0.777826
-0.755827
-0.728572
-0.69425
-0.651731
-0.599943
-0.535946
-0.455847
-0.355439
-0.23038
-0.0750484
0.117818
0.35817
0.657833
1.03146
1.49742
2.0785
2.80259
3.70512
4.8295
6.23039
7.97561
10.15
12.8596
16.2361
20.4436
25.6866
32.2203
40.3608
50.5039
63.1398
78.879
98.4777
122.874
153.232
190.983
237.897
296.137
368.345
457.715
568.077
703.959
870.621
1074
1320.55
1616.86
1969
2381.33
2854.93
3385.49
3960.53
4556.21
5133.31
5648.78
5960.34
6158.96
-0.80468
-0.800155
-0.799843
-0.802103
-0.80485
-0.807771
-0.810376
-0.812913
-0.815909
-0.819849
-0.824884
-0.830683
-0.836526
-0.841699
-0.845919
-0.849164
-0.851211
-0.85184
-0.851321
-0.849998
-0.847695
-0.843851
-0.838176
-0.830634
-0.821193
-0.809585
-0.795233
-0.777357
-0.7553
-0.727999
-0.693697
-0.651189
-0.599337
-0.535276
-0.455105
-0.354611
-0.229436
-0.0739745
0.119038
0.3596
0.659562
1.03355
1.49996
2.08163
2.80631
3.70977
4.83522
6.23746
7.98406
10.1614
12.8739
16.2544
20.4671
25.7166
32.259
40.411
50.5689
63.2245
78.9899
98.6242
123.069
153.493
191.335
238.374
296.789
369.242
458.959
569.81
706.387
874.044
1078.84
1327.39
1626.54
1982.64
2400.47
2881.45
3421.69
4008.88
4618.97
5211.09
5746.35
6057.43
6246.31
-0.805613
-0.802136
-0.801318
-0.803225
-0.8057
-0.80848
-0.811035
-0.813586
-0.816619
-0.820568
-0.825561
-0.831299
-0.837099
-0.842245
-0.846433
-0.849654
-0.851719
-0.852394
-0.851891
-0.850526
-0.848158
-0.844281
-0.838627
-0.831136
-0.821724
-0.810127
-0.795772
-0.777867
-0.755761
-0.72844
-0.694195
-0.651738
-0.599873
-0.535788
-0.455623
-0.35513
-0.229967
-0.0745223
0.118451
0.35901
0.658994
1.03302
1.49943
2.08105
2.80553
3.70906
4.83433
6.2366
7.98309
10.1604
12.8723
16.2525
20.4667
25.7172
32.2608
40.4177
50.5809
63.2442
79.0209
98.6723
123.143
153.605
191.505
238.628
297.169
369.807
459.799
571.056
708.239
876.797
1082.91
1333.41
1635.38
1995.53
2419.11
2908.02
3458.84
4059.58
4686.13
5294.54
5873.57
6157.06
-0.802714
-0.801813
-0.803319
-0.805579
-0.808229
-0.810741
-0.813313
-0.816387
-0.820346
-0.825294
-0.830963
-0.836711
-0.841826
-0.845982
-0.849179
-0.851265
-0.851991
-0.851508
-0.850103
-0.84767
-0.843761
-0.838132
-0.830698
-0.821327
-0.809755
-0.795411
-0.777487
-0.755343
-0.728026
-0.693871
-0.651508
-0.599672
-0.535595
-0.455508
-0.355099
-0.230072
-0.0748076
0.118038
0.358423
0.658212
1.03202
1.49809
2.07925
2.80292
3.70605
4.83043
6.23245
7.97817
10.1551
12.8672
16.2432
20.453
25.7005
32.241
40.3948
50.5546
63.2149
78.9897
98.6411
123.116
153.588
191.511
238.677
297.291
370.051
460.238
571.804
709.473
878.806
1086.11
1338.39
1643.04
2007.14
2436.51
2933.62
3495.66
4111.05
4755.12
5378.04
5990.16
-0.804088
-0.802934
-0.804247
-0.806302
-0.808836
-0.811315
-0.813919
-0.817045
-0.821018
-0.825919
-0.83151
-0.837198
-0.842277
-0.8464
-0.849575
-0.851682
-0.852464
-0.852009
-0.850567
-0.848066
-0.844127
-0.838528
-0.83116
-0.821845
-0.810315
-0.795994
-0.778068
-0.755903
-0.728616
-0.694592
-0.652381
-0.600632
-0.536654
-0.456658
-0.356445
-0.231709
-0.0768026
0.115712
0.355657
0.654899
1.02804
1.49315
2.07303
2.79449
3.69587
4.81645
6.21741
7.95936
10.1309
12.8371
16.212
20.4162
25.6558
32.1871
40.3295
50.4764
63.1219
78.8801
98.514
122.972
153.431
191.348
238.521
297.167
369.993
460.297
572.101
710.179
880.201
1088.64
1342.74
1650.23
2018.73
2454.63
2960.82
3535.49
4167.64
4832.19
5472.72
6107.54
-0.782203
-0.791592
-0.798618
-0.803079
-0.80663
-0.809717
-0.812772
-0.816196
-0.820333
-0.825267
-0.830695
-0.836138
-0.841221
-0.845681
-0.849191
-0.851458
-0.852512
-0.852566
-0.85157
-0.849295
-0.845631
-0.840516
-0.833788
-0.825375
-0.815045
-0.802026
-0.785509
-0.765167
-0.740383
-0.709676
-0.671631
-0.624688
-0.56636
-0.493722
-0.403551
-0.29154
-0.152299
0.022478
0.239828
0.512444
0.85168
1.27348
1.79915
2.45374
3.26894
4.28486
5.55052
7.12651
9.08935
11.5341
14.5792
18.3722
23.096
28.9787
36.304
45.423
56.7719
70.8922
88.4554
110.292
137.427
171.123
212.933
264.757
328.911
408.2
505.991
626.291
773.79
953.88
1172.59
1436.37
1751.71
2124.31
2557.89
3052.24
3600.54
4184.04
4765.27
5327.86
-0.793417
-0.774503
-0.789073
-0.797463
-0.802374
-0.806079
-0.809183
-0.812177
-0.815524
-0.819631
-0.824608
-0.830131
-0.83566
-0.840781
-0.845245
-0.848746
-0.850973
-0.851946
-0.851932
-0.850939
-0.848697
-0.845015
-0.839803
-0.832939
-0.824399
-0.81395
-0.800784
-0.784077
-0.763532
-0.738457
-0.707282
-0.668644
-0.621055
-0.56195
-0.488241
-0.396658
-0.282678
-0.14113
0.0361831
0.257652
0.531237
0.874646
1.30205
1.8348
2.49819
3.32436
4.354
5.63681
7.23404
9.22335
11.7013
14.7877
18.6322
23.4204
29.3834
36.8091
46.0536
57.5591
71.8747
89.6815
111.822
139.334
173.5
215.891
268.432
333.465
413.824
512.903
634.729
783.999
966.081
1186.92
1452.81
1769.92
2143.48
2576.47
3067.77
3609.53
4183.29
4753.62
5281.52
5605.02
-0.791397
-0.763897
-0.787051
-0.797351
-0.802705
-0.806565
-0.80969
-0.812631
-0.815908
-0.819991
-0.825012
-0.830626
-0.836235
-0.841386
-0.845843
-0.84933
-0.85152
-0.852411
-0.852322
-0.851326
-0.849131
-0.845446
-0.840142
-0.833144
-0.824471
-0.813885
-0.80057
-0.783714
-0.763007
-0.737662
-0.70605
-0.666892
-0.618778
-0.559085
-0.484588
-0.39202
-0.277132
-0.133069
0.0462285
0.269881
0.547184
0.894528
1.32681
1.86608
2.53739
3.37344
4.4154
5.71358
7.32988
9.34299
11.8508
14.9743
18.8651
23.7112
29.7466
37.2627
46.6201
58.2667
72.7586
90.7854
113.2
141.055
175.646
218.565
271.758
337.593
418.93
519.192
642.428
793.347
977.302
1200.18
1468.14
1787.11
2161.91
2594.93
3084.3
3621.26
4186.93
4747.49
5257.79
5577.28
5774.5
-0.789511
-0.746579
-0.78411
-0.796199
-0.801965
-0.805942
-0.809069
-0.811944
-0.815143
-0.819195
-0.824255
-0.829956
-0.835641
-0.840817
-0.845266
-0.848739
-0.850892
-0.8517
-0.851534
-0.850537
-0.848392
-0.84471
-0.839322
-0.832195
-0.823391
-0.812672
-0.799219
-0.782228
-0.761371
-0.735766
-0.703718
-0.664041
-0.615405
-0.555098
-0.479747
-0.386016
-0.269557
-0.123994
0.0572023
0.2829
0.563496
0.914388
1.35085
1.89675
2.57551
3.42092
4.47458
5.7874
7.42183
9.45759
11.9939
15.1528
19.0877
23.9891
30.0935
37.6958
47.1611
58.9426
73.6032
91.8408
114.519
142.701
177.701
221.128
274.95
341.561
423.847
525.26
649.875
802.418
988.232
1213.17
1483.26
1804.24
2180.56
2614.09
3102.29
3635.63
4194.39
4742.36
5236.94
5551.87
5733.17
-0.787887
-0.716936
-0.781962
-0.79632
-0.802411
-0.806486
-0.809611
-0.812417
-0.815539
-0.819564
-0.824674
-0.830474
-0.836245
-0.841453
-0.8459
-0.849366
-0.851485
-0.852207
-0.851962
-0.850967
-0.848879
-0.845205
-0.839736
-0.832483
-0.82355
-0.812707
-0.799129
-0.782015
-0.761025
-0.735188
-0.702729
-0.662561
-0.613474
-0.552637
-0.476531
-0.381769
-0.263977
-0.117105
0.0657446
0.293384
0.576698
0.93073
1.37015
1.92329
2.60877
3.46254
4.52671
5.85268
7.5034
9.55957
12.1216
15.3125
19.2872
24.2384
30.4052
38.0854
47.648
59.5516
74.3652
92.7938
115.711
144.192
179.564
223.455
277.853
345.176
428.337
530.817
656.717
810.781
998.355
1225.26
1497.46
1820.49
2198.52
2632.98
3120.75
3651.72
4206.18
4754.89
5227.84
5518.7
5744.72
-0.787883
-0.741131
-0.783035
-0.795902
-0.801892
-0.805972
-0.809068
-0.811806
-0.814858
-0.818855
-0.823998
-0.829871
-0.835706
-0.840934
-0.845369
-0.848821
-0.850909
-0.851561
-0.851244
-0.850241
-0.848192
-0.844522
-0.838987
-0.831626
-0.822577
-0.811609
-0.797911
-0.780691
-0.759572
-0.733509
-0.700669
-0.660051
-0.610528
-0.549164
-0.472338
-0.376583
-0.257505
-0.109253
0.0754143
0.305393
0.591934
0.949945
1.39523
1.95152
2.64376
3.50621
4.58098
5.92006
7.58705
9.6636
12.2513
15.4742
19.4888
24.49
30.7196
38.4784
48.1393
60.1664
75.1351
93.758
116.918
145.705
181.459
225.828
280.822
348.885
432.962
536.567
663.83
819.526
1009.02
1238.11
1512.68
1838.14
2218.37
2654.4
3142.58
3672.19
4223.28
4768.56
5251.51
5549.53
5743.63
-0.788822
-0.757628
-0.785707
-0.796865
-0.802598
-0.806631
-0.809698
-0.812389
-0.815398
-0.819378
-0.824543
-0.830464
-0.836343
-0.841582
-0.846003
-0.849438
-0.851502
-0.852105
-0.851732
-0.850709
-0.848676
-0.845001
-0.839413
-0.831969
-0.822826
-0.811738
-0.797925
-0.780606
-0.759358
-0.733083
-0.699921
-0.658917
-0.608974
-0.54713
-0.469688
-0.373081
-0.252863
-0.103538
0.0826086
0.314318
0.60356
0.964259
1.41398
1.97435
2.67249
3.54233
4.62626
5.97674
7.65798
9.75239
12.3625
15.6133
19.6627
24.7076
30.9918
38.819
48.5657
60.7005
75.8046
94.5974
117.971
147.025
183.116
227.906
283.428
352.149
437.044
541.66
670.162
827.359
1018.64
1249.81
1526.74
1854.73
2237.49
2675.78
3165.54
3695.55
4245.37
4785.34
5266.42
5570.5
5752.47
-0.789867
-0.76969
-0.787672
-0.796895
-0.802303
-0.806254
-0.809279
-0.811928
-0.814904
-0.818868
-0.824044
-0.829994
-0.835899
-0.841141
-0.845544
-0.848959
-0.851005
-0.851573
-0.851154
-0.850105
-0.848073
-0.844389
-0.838758
-0.831244
-0.822048
-0.81085
-0.796937
-0.779533
-0.758167
-0.73171
-0.698276
-0.656934
-0.606621
-0.544329
-0.466378
-0.369041
-0.247892
-0.097204
0.0904708
0.324036
0.615314
0.978246
1.43133
1.99572
2.69912
3.57558
4.6677
6.02838
7.72245
9.83292
12.4631
15.739
19.8198
24.904
31.2376
39.1267
48.9509
61.1835
76.4105
95.3579
118.926
148.225
184.624
229.803
285.812
355.146
440.808
546.379
676.063
834.713
1027.76
1261.03
1540.4
1871.14
2256.85
2698.08
3190.47
3722.43
4273.05
4811.23
5295.64
5638.03
5777.75
-0.792458
-0.779063
-0.790388
-0.797998
-0.802994
-0.806822
-0.809793
-0.812405
-0.815359
-0.819312
-0.82449
-0.830454
-0.836381
-0.841627
-0.846008
-0.8494
-0.851432
-0.851976
-0.85152
-0.850441
-0.848401
-0.844708
-0.839051
-0.831496
-0.822193
-0.810892
-0.796883
-0.779394
-0.757903
-0.731283
-0.697603
-0.655948
-0.605296
-0.542542
-0.464233
-0.366264
-0.244261
-0.092552
0.0964385
0.331721
0.624921
0.990255
1.44624
2.01432
2.7224
3.6047
4.7041
6.07385
7.7794
9.90426
12.5524
15.8508
19.9599
25.0795
31.4576
39.4024
49.2967
61.6175
76.956
96.0439
119.789
149.312
185.994
231.531
287.993
357.899
444.282
550.76
681.581
841.647
1036.44
1271.84
1553.76
1887.48
2276.56
2721.44
3217.55
3753
4306.48
4846.13
5332.93
5675.45
5816.99
-0.79508
-0.784972
-0.792271
-0.798422
-0.803009
-0.806703
-0.80962
-0.812205
-0.815144
-0.819086
-0.824259
-0.830224
-0.836159
-0.841403
-0.845761
-0.84913
-0.851153
-0.851685
-0.8512
-0.850087
-0.848027
-0.84432
-0.838644
-0.83106
-0.821689
-0.810304
-0.796214
-0.778652
-0.757039
-0.730318
-0.696448
-0.654532
-0.603644
-0.540624
-0.461742
-0.36318
-0.240343
-0.0876749
0.102159
0.338742
0.633542
1.00099
1.45948
2.03079
2.74298
3.63043
4.7362
6.11388
7.82948
9.96689
12.6306
15.9488
20.0825
25.2331
31.6501
39.6439
49.5998
61.9986
77.4356
96.6482
120.551
150.275
187.211
233.072
289.946
360.377
447.429
554.758
686.66
848.094
1044.6
1282.15
1566.72
1903.64
2296.51
2745.75
3246.69
3787.19
4345.62
4889.62
5380.71
5725.52
5868.04
-0.797282
-0.789831
-0.794372
-0.79935
-0.803514
-0.807053
-0.809904
-0.812461
-0.815393
-0.819332
-0.824493
-0.830447
-0.836383
-0.841621
-0.845953
-0.849298
-0.851317
-0.85185
-0.851342
-0.850192
-0.848102
-0.844375
-0.838687
-0.831088
-0.821671
-0.810213
-0.796053
-0.778429
-0.756732
-0.729827
-0.695795
-0.653614
-0.602602
-0.539339
-0.460106
-0.360936
-0.237443
-0.0840046
0.106723
0.344397
0.640585
1.00983
1.47048
2.04451
2.76014
3.65192
4.76304
6.14739
7.87152
10.0195
12.6965
16.0313
20.1862
25.3632
31.8134
39.849
49.858
62.3238
77.846
97.167
121.208
151.107
188.269
234.417
291.662
362.569
450.235
558.357
691.28
854.028
1052.23
1291.93
1579.23
1919.58
2316.67
2770.99
3277.86
3825.01
4390.49
4941.64
5439.37
5787.97
5931.18
-0.799236
-0.793354
-0.796098
-0.800118
-0.803885
-0.807262
-0.810049
-0.812589
-0.815525
-0.81946
-0.824601
-0.830532
-0.836459
-0.841686
-0.845992
-0.849312
-0.851333
-0.851877
-0.851356
-0.850166
-0.848035
-0.844285
-0.838593
-0.830995
-0.821552
-0.81004
-0.795824
-0.778139
-0.756353
-0.72934
-0.695202
-0.652884
-0.601658
-0.538176
-0.458653
-0.359074
-0.235067
-0.0810214
0.11047
0.349013
0.646325
1.01702
1.47945
2.05563
2.77404
3.66931
4.78476
6.1745
7.90559
10.0622
12.7498
16.0982
20.2703
25.4689
31.9465
40.0165
50.0693
62.5908
78.1841
97.5961
121.753
151.803
189.157
235.556
293.126
364.457
452.677
561.524
695.401
859.404
1059.25
1301.1
1591.22
1935.19
2336.92
2797.02
3310.91
3866.29
4441.02
5002.07
5509.03
5862.73
6007.02
-0.80097
-0.795967
-0.797499
-0.800723
-0.80412
-0.807332
-0.810055
-0.812588
-0.815538
-0.81947
-0.824582
-0.83048
-0.836387
-0.841599
-0.845875
-0.84917
-0.851198
-0.851764
-0.851238
-0.850005
-0.847824
-0.844045
-0.838354
-0.83077
-0.821322
-0.809773
-0.795511
-0.777763
-0.755877
-0.728825
-0.694631
-0.652274
-0.600787
-0.537119
-0.457382
-0.357489
-0.233077
-0.0785152
0.11342
0.352603
0.650791
1.02261
1.48649
2.06419
2.7847
3.68266
4.80143
6.19532
7.93186
10.0949
12.7908
16.1497
20.3352
25.5508
32.0498
40.1467
50.2344
62.8004
78.4508
97.9367
122.19
152.363
189.879
236.491
294.342
366.044
454.759
564.268
699.032
864.23
1065.68
1309.71
1602.72
1950.55
2357.32
2823.94
3346.01
3911.31
4497.51
5071.09
5589.92
5950.11
6095.6
-0.802344
-0.798548
-0.7991
-0.801753
-0.804804
-0.807853
-0.810509
-0.813038
-0.81601
-0.819948
-0.825024
-0.830879
-0.836761
-0.841954
-0.846199
-0.849468
-0.851509
-0.852108
-0.851584
-0.850308
-0.848069
-0.844259
-0.838579
-0.831023
-0.821591
-0.810024
-0.795733
-0.777939
-0.755995
-0.728834
-0.694617
-0.652225
-0.600593
-0.536784
-0.456952
-0.356873
-0.232225
-0.0773953
0.114868
0.354477
0.653218
1.02567
1.49007
2.06969
2.79162
3.69138
4.81234
6.20902
7.94968
10.1168
12.8183
16.1845
20.3794
25.6068
32.1212
40.2369
50.3499
62.9485
78.6413
98.1831
122.509
152.78
190.425
237.209
295.292
367.309
456.455
566.552
702.129
868.451
1071.46
1317.64
1613.61
1965.49
2377.75
2851.6
3383.01
3959.86
4559.72
5148.68
5681.79
6050.68
6196.96
-0.803746
-0.799915
-0.799926
-0.802022
-0.804774
-0.80767
-0.810272
-0.812808
-0.815809
-0.819753
-0.824788
-0.830586
-0.836427
-0.841596
-0.845808
-0.849051
-0.851108
-0.851749
-0.851235
-0.849913
-0.847608
-0.843761
-0.838095
-0.830573
-0.821188
-0.809624
-0.795316
-0.777483
-0.755479
-0.728263
-0.694068
-0.651685
-0.599991
-0.536125
-0.456177
-0.355985
-0.231198
-0.0762064
0.116228
0.356089
0.655189
1.02809
1.49312
2.0732
2.79582
3.69661
4.81883
6.21675
7.9575
10.1292
12.8339
16.2044
20.4049
25.6397
32.1643
40.2905
50.4193
63.0387
78.7593
98.3387
122.716
153.056
190.796
237.712
295.979
368.255
457.765
568.38
704.692
872.064
1076.57
1324.88
1623.87
1980
2398.14
2879.94
3421.8
4011.84
4627.62
5235.18
5784.46
6160.91
6312.52
-0.805446
-0.802203
-0.801418
-0.803208
-0.805658
-0.808407
-0.810955
-0.813509
-0.816551
-0.820505
-0.825494
-0.831223
-0.837018
-0.842158
-0.846336
-0.849553
-0.851629
-0.852321
-0.851826
-0.850459
-0.848083
-0.844203
-0.838562
-0.831101
-0.821726
-0.810169
-0.795855
-0.777986
-0.755923
-0.728676
-0.694535
-0.652199
-0.600482
-0.536569
-0.456611
-0.356393
-0.231585
-0.076528
0.115817
0.355716
0.654895
1.0279
1.49305
2.07313
2.79572
3.69672
4.81905
6.21711
7.95864
10.1302
12.8354
16.2062
20.4077
25.6436
32.1684
40.3056
50.4412
63.0705
78.8054
98.4059
122.814
153.2
191.006
238.018
296.425
368.906
458.722
569.783
706.758
875.11
1081.06
1331.48
1633.55
1994.12
2418.57
2909.03
3462.52
4067.42
4701.4
5330.52
5893.13
6230.5
6442.47
-0.806661
-0.802795
-0.801871
-0.803257
-0.805475
-0.808085
-0.810585
-0.813165
-0.816257
-0.820221
-0.825153
-0.830796
-0.836525
-0.841627
-0.845769
-0.848959
-0.851055
-0.851806
-0.851337
-0.849924
-0.847471
-0.843554
-0.837942
-0.830545
-0.821213
-0.809682
-0.795374
-0.77748
-0.755366
-0.728111
-0.694064
-0.651829
-0.600117
-0.53613
-0.456312
-0.356165
-0.231484
-0.0766275
0.115736
0.355539
0.654621
1.02755
1.49252
2.07235
2.79431
3.69523
4.81715
6.21452
7.95548
10.1263
12.831
16.2005
20.4006
25.6352
32.1595
40.2941
50.4296
63.0602
78.7986
98.405
122.826
153.23
191.074
238.145
296.646
369.277
459.358
570.816
708.396
877.68
1085.04
1337.6
1642.87
2008.16
2439.41
2939.29
3505.59
4126.73
4780.83
5435.45
6013.77
6352.87
6587.82
-0.807814
-0.804786
-0.803333
-0.804525
-0.806473
-0.808938
-0.811404
-0.814039
-0.817206
-0.821191
-0.826057
-0.831587
-0.837224
-0.842273
-0.846373
-0.849532
-0.851651
-0.852476
-0.852049
-0.850583
-0.848036
-0.844076
-0.8385
-0.831181
-0.821915
-0.810423
-0.796127
-0.77821
-0.756045
-0.728792
-0.694881
-0.65281
-0.601151
-0.537253
-0.457365
-0.357356
-0.23291
-0.0783272
0.113873
0.353411
0.65216
1.02476
1.48909
2.06806
2.788
3.68885
4.80988
6.20483
7.94401
10.1126
12.8141
16.1817
20.3786
25.6094
32.13
40.2593
50.3904
63.017
78.7525
98.3596
122.787
153.211
191.091
238.225
296.835
369.638
459.91
571.721
709.872
880.127
1088.98
1343.82
1652.57
2023.12
2462.24
2972.94
3554.04
4194.98
4872.6
5549.28
6142.03
6494.24
6740.2
-0.809026
-0.805092
-0.803659
-0.80456
-0.806324
-0.808661
-0.811093
-0.813774
-0.81701
-0.821011
-0.825809
-0.83123
-0.836779
-0.841775
-0.845831
-0.84896
-0.851106
-0.852005
-0.851616
-0.850102
-0.847469
-0.843471
-0.837936
-0.830701
-0.821513
-0.810079
-0.795821
-0.777903
-0.755715
-0.72851
-0.694784
-0.652929
-0.601405
-0.537619
-0.457859
-0.358129
-0.234092
-0.0800231
0.111728
0.35068
0.648688
1.02057
1.48381
2.06175
2.7805
3.67814
4.796
6.18797
7.92344
10.0857
12.7805
16.1399
20.3269
25.5457
32.052
40.1635
50.2738
62.8756
78.5821
98.1563
122.548
152.933
190.774
237.877
296.472
369.296
459.687
571.72
710.281
881.057
1090.94
1347.54
1659.12
2033.96
2479.43
2999.75
3594.3
4253.29
4953.41
5652.55
6281.07
6637.45
6871.84
-0.81005
-0.806556
-0.804878
-0.805699
-0.807283
-0.809517
-0.811929
-0.814663
-0.817974
-0.821998
-0.826736
-0.832056
-0.837525
-0.842474
-0.846491
-0.849595
-0.851772
-0.852743
-0.852391
-0.850833
-0.848124
-0.844098
-0.838608
-0.831458
-0.822352
-0.810985
-0.796778
-0.778875
-0.756685
-0.729554
-0.696041
-0.654431
-0.60309
-0.539469
-0.459936
-0.36059
-0.237096
-0.0837118
0.107378
0.345462
0.642304
1.0131
1.4747
2.05105
2.76721
3.66122
4.77493
6.16208
7.8914
10.0459
12.7312
16.0789
20.2517
25.4531
31.9383
40.0236
50.1023
62.6663
78.3276
97.849
122.18
152.496
190.263
237.291
295.817
368.596
458.996
571.128
709.949
881.348
1092.22
1350.5
1664.81
2043.94
2495.95
3026.16
3635.2
4313.92
5039.19
5767.76
6435.08
6819.1
7046.05
-0.81073
-0.806669
-0.805072
-0.805644
-0.807099
-0.809231
-0.81162
-0.814403
-0.817782
-0.821822
-0.826497
-0.831712
-0.837096
-0.841994
-0.845969
-0.849049
-0.851255
-0.852296
-0.851979
-0.850382
-0.847606
-0.843559
-0.838118
-0.831055
-0.822036
-0.810744
-0.796601
-0.778729
-0.75656
-0.729528
-0.696254
-0.654917
-0.603801
-0.540385
-0.461136
-0.362232
-0.239335
-0.0866031
0.103696
0.340952
0.637104
1.00559
1.46524
2.04033
2.75235
3.64207
4.75073
6.13191
7.85376
9.99919
12.6733
16.0069
20.1624
25.3428
31.802
39.8555
49.8955
62.4126
78.0176
97.4721
121.724
151.951
189.616
236.535
294.952
367.636
457.983
570.143
709.138
880.957
1092.72
1352.6
1669.61
2053.09
2511.84
3052.72
3676.93
4376.58
5129
5889.6
6601.03
6993.46
7251.79
-0.811002
-0.807762
-0.805976
-0.806531
-0.807866
-0.809924
-0.812305
-0.815141
-0.818589
-0.82265
-0.827272
-0.832392
-0.837697
-0.842547
-0.846487
-0.849547
-0.851779
-0.852883
-0.8526
-0.850972
-0.848143
-0.844086
-0.838694
-0.831715
-0.822782
-0.81157
-0.797501
-0.779677
-0.757555
-0.730642
-0.697618
-0.656581
-0.605741
-0.542598
-0.463739
-0.365428
-0.243314
-0.0915361
0.0975457
0.333281
0.627311
0.993387
1.44947
2.01911
2.73254
3.61713
4.71958
6.09323
7.80575
9.93981
12.5997
15.9156
20.0493
25.2028
31.629
39.6418
49.6321
62.0887
77.6205
96.9872
121.135
151.24
188.765
235.527
293.778
366.3
456.514
568.612
707.69
879.868
1092.44
1353.78
1673.5
2061.7
2528.26
3080.68
3721.84
4445.31
5228.45
6020.12
6794.26
7177.41
-0.798385
-0.79921
-0.801833
-0.804374
-0.807083
-0.810011
-0.813322
-0.817102
-0.821387
-0.826098
-0.831035
-0.83602
-0.840902
-0.84536
-0.848932
-0.851392
-0.852845
-0.853237
-0.852225
-0.849767
-0.846235
-0.841692
-0.835678
-0.827874
-0.818157
-0.805943
-0.790424
-0.771181
-0.747934
-0.719566
-0.684465
-0.640811
-0.58627
-0.518669
-0.434889
-0.330629
-0.200324
-0.0375567
0.162548
0.420391
0.735992
1.1298
1.62031
2.23052
2.99022
3.93673
5.11548
6.5836
8.41218
10.6893
13.5259
17.0584
21.4569
26.9343
33.7535
42.2405
52.802
65.9414
82.283
102.6
127.846
159.203
198.124
246.396
306.209
380.237
471.727
584.604
723.568
894.187
1102.96
1357.31
1665.41
2035.79
2476.28
2992.24
3583.3
4236.28
4911.47
5607.03
-0.801664
-0.796373
-0.797769
-0.800851
-0.803701
-0.806555
-0.809513
-0.812781
-0.816501
-0.82076
-0.825509
-0.830534
-0.835606
-0.840534
-0.845002
-0.848564
-0.850985
-0.85237
-0.852709
-0.85169
-0.849233
-0.845648
-0.840988
-0.834835
-0.826911
-0.817074
-0.804682
-0.788912
-0.769369
-0.74575
-0.716871
-0.681105
-0.636636
-0.581123
-0.512263
-0.426891
-0.32047
-0.187597
-0.0214113
0.185944
0.441708
0.762407
1.16274
1.66142
2.28185
3.05431
4.01676
5.21543
6.7083
8.56771
10.8833
13.7677
17.3599
21.8329
27.4032
34.3382
42.9698
53.7112
67.0747
83.6951
104.358
130.035
161.924
201.501
250.579
311.375
386.591
479.501
594.043
734.912
907.627
1118.57
1374.92
1684.43
2054.93
2493.23
3003.22
3582.8
4217.34
4870.96
5516.87
5912.58
-0.800657
-0.794348
-0.796822
-0.800749
-0.80396
-0.806999
-0.809994
-0.813211
-0.816856
-0.821084
-0.825883
-0.831017
-0.836189
-0.841159
-0.845623
-0.84917
-0.85155
-0.85285
-0.853113
-0.8521
-0.849689
-0.846075
-0.841284
-0.834975
-0.826924
-0.816954
-0.804385
-0.788414
-0.768652
-0.744725
-0.715371
-0.67901
-0.633873
-0.577607
-0.50777
-0.421203
-0.313426
-0.179276
-0.0100268
0.200218
0.460981
0.786835
1.19329
1.69958
2.32959
3.11401
4.09141
5.30878
6.82489
8.71319
11.0648
13.994
17.6422
22.1851
27.8425
34.8863
43.6536
54.5641
68.1382
85.0208
106.01
132.092
164.482
204.678
254.517
316.241
392.581
486.834
602.955
745.636
920.353
1133.38
1391.68
1702.63
2073.42
2509.95
3014.87
3584.84
4203.54
4836.55
5438.26
5838.29
6138.13
-0.799046
-0.790532
-0.794623
-0.799351
-0.803008
-0.806233
-0.809262
-0.812415
-0.815974
-0.820166
-0.825017
-0.830263
-0.835541
-0.840554
-0.845016
-0.84855
-0.850889
-0.852096
-0.852281
-0.851278
-0.848921
-0.845286
-0.840368
-0.833899
-0.825715
-0.815612
-0.802869
-0.786698
-0.766713
-0.742462
-0.712595
-0.675593
-0.629761
-0.572705
-0.501788
-0.413789
-0.304532
-0.168335
0.00303951
0.216085
0.480985
0.811856
1.224
1.73748
2.37667
3.17262
4.16446
5.39998
6.93861
8.85493
11.2415
14.2143
17.9169
22.5278
28.2698
35.4192
44.3187
55.3937
69.1728
86.3107
107.618
134.094
166.973
207.774
258.355
320.987
398.427
493.997
611.67
756.135
932.829
1147.93