/*--------------------------------*- C++ -*----------------------------------*\
| =========                 |                                                 |
| \\      /  F ield         | OpenFOAM: The Open Source CFD Toolbox           |
|  \\    /   O peration     | Version:  v1906                                 |
|   \\  /    A nd           | Web:      www.OpenFOAM.com                      |
|    \\/     M anipulation  |                                                 |
\*---------------------------------------------------------------------------*/
FoamFile
{
    version     2.0;
    format      ascii;
    class       volScalarField;
    location    "31.5";
    object      p;
}
// * * * * * * * * * * * * * * * * * * * * * * * * * * * * * * * * * * * * * //

dimensions      [0 2 -2 0 0 0 0];


internalField   nonuniform List<scalar> 
243374
(
-7.278e-17
-3.95247e-11
-5.91386e-11
-8.2116e-11
-1.04779e-10
-1.27123e-10
-1.49335e-10
-1.71425e-10
-1.9348e-10
-2.15491e-10
-2.37478e-10
-2.59475e-10
-2.81468e-10
-3.03441e-10
-3.25428e-10
-3.47397e-10
-3.69399e-10
-3.91389e-10
-4.13374e-10
-4.35372e-10
-4.57379e-10
-4.79351e-10
-5.01334e-10
-5.23344e-10
-5.4533e-10
-5.67322e-10
-5.89316e-10
-6.11307e-10
-6.33297e-10
-6.55295e-10
-6.77289e-10
-6.99278e-10
-7.2127e-10
-7.43267e-10
-7.65268e-10
-7.87256e-10
-8.09236e-10
-8.31238e-10
-8.53241e-10
-8.75222e-10
-8.97212e-10
-9.19222e-10
-9.41203e-10
-9.63202e-10
-9.85193e-10
-1.00719e-09
-1.02919e-09
-1.05119e-09
-1.07319e-09
-1.09519e-09
-1.11721e-09
-1.13921e-09
-1.16122e-09
-1.18323e-09
-1.20527e-09
-1.2273e-09
-1.24936e-09
-1.27143e-09
-1.29352e-09
-1.31566e-09
-1.33786e-09
-1.36011e-09
-1.38246e-09
-1.40493e-09
-1.42757e-09
-1.45046e-09
-1.47368e-09
-1.49737e-09
-1.5217e-09
-1.54692e-09
-1.5734e-09
-1.60156e-09
-1.63209e-09
-1.66582e-09
-1.70401e-09
-1.74823e-09
-1.8005e-09
-1.86314e-09
-1.93351e-09
-2.04839e-09
-1.34772e-11
-4.01938e-11
-5.95097e-11
-8.2289e-11
-1.04873e-10
-1.27189e-10
-1.4938e-10
-1.71467e-10
-1.93492e-10
-2.15508e-10
-2.37507e-10
-2.59489e-10
-2.81464e-10
-3.03447e-10
-3.25431e-10
-3.47428e-10
-3.69411e-10
-3.91394e-10
-4.134e-10
-4.35375e-10
-4.57365e-10
-4.79383e-10
-5.0136e-10
-5.23337e-10
-5.45345e-10
-5.67337e-10
-5.89326e-10
-6.11318e-10
-6.33308e-10
-6.55297e-10
-6.77297e-10
-6.99291e-10
-7.21282e-10
-7.43275e-10
-7.65273e-10
-7.87261e-10
-8.09258e-10
-8.31246e-10
-8.53243e-10
-8.75238e-10
-8.97229e-10
-9.19223e-10
-9.41217e-10
-9.63215e-10
-9.85197e-10
-1.0072e-09
-1.02921e-09
-1.05119e-09
-1.0732e-09
-1.09521e-09
-1.1172e-09
-1.13921e-09
-1.16122e-09
-1.18325e-09
-1.20527e-09
-1.22732e-09
-1.24936e-09
-1.27143e-09
-1.29353e-09
-1.31567e-09
-1.33784e-09
-1.36009e-09
-1.38244e-09
-1.40492e-09
-1.42755e-09
-1.45044e-09
-1.47369e-09
-1.49737e-09
-1.52173e-09
-1.54699e-09
-1.57351e-09
-1.60177e-09
-1.63242e-09
-1.66635e-09
-1.70477e-09
-1.74929e-09
-1.80188e-09
-1.86498e-09
-1.93695e-09
-2.03752e-09
-3.00266e-11
-4.03525e-11
-5.97419e-11
-8.23815e-11
-1.04914e-10
-1.27201e-10
-1.49366e-10
-1.71458e-10
-1.93505e-10
-2.15506e-10
-2.37487e-10
-2.5948e-10
-2.81464e-10
-3.03443e-10
-3.25424e-10
-3.47405e-10
-3.69394e-10
-3.91391e-10
-4.13369e-10
-4.35372e-10
-4.57375e-10
-4.7933e-10
-5.01335e-10
-5.23358e-10
-5.45331e-10
-5.67321e-10
-5.8932e-10
-6.11301e-10
-6.33297e-10
-6.55286e-10
-6.77277e-10
-6.99276e-10
-7.21278e-10
-7.43274e-10
-7.65256e-10
-7.87251e-10
-8.09239e-10
-8.31238e-10
-8.53242e-10
-8.75219e-10
-8.97224e-10
-9.1922e-10
-9.41205e-10
-9.63192e-10
-9.85202e-10
-1.00719e-09
-1.02918e-09
-1.0512e-09
-1.07318e-09
-1.09517e-09
-1.11719e-09
-1.1392e-09
-1.16122e-09
-1.18322e-09
-1.20525e-09
-1.22727e-09
-1.24934e-09
-1.2714e-09
-1.29349e-09
-1.31564e-09
-1.33782e-09
-1.36006e-09
-1.38241e-09
-1.40485e-09
-1.42751e-09
-1.45041e-09
-1.47361e-09
-1.49734e-09
-1.52168e-09
-1.54696e-09
-1.57352e-09
-1.60184e-09
-1.63254e-09
-1.66662e-09
-1.70522e-09
-1.74995e-09
-1.80283e-09
-1.86612e-09
-1.93889e-09
-2.0228e-09
1.28103e-10
-2.1372e-11
-3.78176e-11
-5.97669e-11
-8.24323e-11
-1.04949e-10
-1.27216e-10
-1.49431e-10
-1.71474e-10
-1.93493e-10
-2.1551e-10
-2.37523e-10
-2.59482e-10
-2.81478e-10
-3.0344e-10
-3.25429e-10
-3.4741e-10
-3.69414e-10
-3.91382e-10
-4.13405e-10
-4.35391e-10
-4.57362e-10
-4.79385e-10
-5.01352e-10
-5.23316e-10
-5.45335e-10
-5.67327e-10
-5.89324e-10
-6.11323e-10
-6.33302e-10
-6.55307e-10
-6.77305e-10
-6.99281e-10
-7.21262e-10
-7.43262e-10
-7.65284e-10
-7.87248e-10
-8.09257e-10
-8.31238e-10
-8.53224e-10
-8.75221e-10
-8.97223e-10
-9.19214e-10
-9.41205e-10
-9.63227e-10
-9.85182e-10
-1.00721e-09
-1.0292e-09
-1.05116e-09
-1.0732e-09
-1.09522e-09
-1.11719e-09
-1.13919e-09
-1.16119e-09
-1.18323e-09
-1.20525e-09
-1.22732e-09
-1.24934e-09
-1.27142e-09
-1.29351e-09
-1.3156e-09
-1.33779e-09
-1.36004e-09
-1.38236e-09
-1.40486e-09
-1.42748e-09
-1.45035e-09
-1.4736e-09
-1.49727e-09
-1.52166e-09
-1.54695e-09
-1.57352e-09
-1.60186e-09
-1.63268e-09
-1.6668e-09
-1.70553e-09
-1.75043e-09
-1.80354e-09
-1.8672e-09
-1.94329e-09
-2.03053e-09
-2.1324e-09
1.16596e-10
-2.83744e-11
-3.87133e-11
-5.98095e-11
-8.24702e-11
-1.04971e-10
-1.27233e-10
-1.49374e-10
-1.7149e-10
-1.93515e-10
-2.15512e-10
-2.37506e-10
-2.59475e-10
-2.81453e-10
-3.03464e-10
-3.25426e-10
-3.47435e-10
-3.69382e-10
-3.91403e-10
-4.13362e-10
-4.35351e-10
-4.57351e-10
-4.79323e-10
-5.01347e-10
-5.23372e-10
-5.45336e-10
-5.67333e-10
-5.89315e-10
-6.11297e-10
-6.33301e-10
-6.55279e-10
-6.7728e-10
-6.99271e-10
-7.21274e-10
-7.43284e-10
-7.6525e-10
-7.87257e-10
-8.09241e-10
-8.31227e-10
-8.53226e-10
-8.75223e-10
-8.97216e-10
-9.19207e-10
-9.41199e-10
-9.63193e-10
-9.85204e-10
-1.00719e-09
-1.02916e-09
-1.05122e-09
-1.07317e-09
-1.09516e-09
-1.11719e-09
-1.13921e-09
-1.16123e-09
-1.18323e-09
-1.20523e-09
-1.22724e-09
-1.24932e-09
-1.27136e-09
-1.29345e-09
-1.31563e-09
-1.33777e-09
-1.36002e-09
-1.38235e-09
-1.40478e-09
-1.4274e-09
-1.45031e-09
-1.47349e-09
-1.49721e-09
-1.52158e-09
-1.54686e-09
-1.57344e-09
-1.60181e-09
-1.6326e-09
-1.66684e-09
-1.70565e-09
-1.75067e-09
-1.80392e-09
-1.86779e-09
-1.94335e-09
-2.02595e-09
-2.14708e-09
-2.33969e-09
1.11291e-10
-2.04708e-11
-3.71759e-11
-5.9729e-11
-8.24937e-11
-1.04956e-10
-1.27243e-10
-1.49449e-10
-1.71478e-10
-1.93507e-10
-2.1551e-10
-2.37506e-10
-2.59499e-10
-2.81476e-10
-3.03428e-10
-3.25448e-10
-3.47383e-10
-3.6942e-10
-3.91372e-10
-4.1339e-10
-4.35398e-10
-4.57379e-10
-4.79387e-10
-5.01349e-10
-5.23304e-10
-5.45337e-10
-5.67313e-10
-5.89316e-10
-6.11316e-10
-6.33293e-10
-6.55296e-10
-6.77296e-10
-6.99304e-10
-7.21275e-10
-7.43252e-10
-7.6526e-10
-7.87239e-10
-8.09237e-10
-8.31231e-10
-8.53226e-10
-8.75211e-10
-8.97218e-10
-9.19206e-10
-9.41204e-10
-9.63196e-10
-9.8519e-10
-1.00719e-09
-1.0292e-09
-1.05115e-09
-1.07319e-09
-1.09521e-09
-1.11719e-09
-1.13916e-09
-1.16117e-09
-1.1832e-09
-1.20524e-09
-1.22729e-09
-1.24931e-09
-1.27138e-09
-1.29347e-09
-1.31555e-09
-1.33775e-09
-1.35996e-09
-1.38229e-09
-1.40475e-09
-1.42737e-09
-1.45023e-09
-1.47345e-09
-1.49711e-09
-1.52148e-09
-1.54675e-09
-1.57331e-09
-1.60168e-09
-1.63252e-09
-1.66673e-09
-1.70552e-09
-1.75064e-09
-1.80396e-09
-1.86801e-09
-1.94524e-09
-2.03366e-09
-2.15366e-09
-2.33761e-09
1.06559e-10
-2.47342e-11
-3.78037e-11
-5.97828e-11
-8.2489e-11
-1.05002e-10
-1.27241e-10
-1.49403e-10
-1.71494e-10
-1.93495e-10
-2.15539e-10
-2.37507e-10
-2.59452e-10
-2.8148e-10
-3.03467e-10
-3.25413e-10
-3.47429e-10
-3.69392e-10
-3.91418e-10
-4.13388e-10
-4.3535e-10
-4.57341e-10
-4.79328e-10
-5.01347e-10
-5.23358e-10
-5.45341e-10
-5.67334e-10
-5.89314e-10
-6.11312e-10
-6.33308e-10
-6.5529e-10
-6.77279e-10
-6.99251e-10
-7.21264e-10
-7.43282e-10
-7.65267e-10
-7.87241e-10
-8.09235e-10
-8.31225e-10
-8.5321e-10
-8.75213e-10
-8.9719e-10
-9.19203e-10
-9.41177e-10
-9.63194e-10
-9.85184e-10
-1.00719e-09
-1.02916e-09
-1.05122e-09
-1.07319e-09
-1.09517e-09
-1.11716e-09
-1.13919e-09
-1.16121e-09
-1.18322e-09
-1.20521e-09
-1.22724e-09
-1.2493e-09
-1.27133e-09
-1.29341e-09
-1.31558e-09
-1.3377e-09
-1.35994e-09
-1.38225e-09
-1.40469e-09
-1.42729e-09
-1.45016e-09
-1.47334e-09
-1.49701e-09
-1.52134e-09
-1.5466e-09
-1.57313e-09
-1.60146e-09
-1.63226e-09
-1.66647e-09
-1.70535e-09
-1.75035e-09
-1.80366e-09
-1.86772e-09
-1.94447e-09
-2.02995e-09
-2.15527e-09
-2.33609e-09
1.04712e-10
-2.47025e-11
-3.77896e-11
-5.97658e-11
-8.24893e-11
-1.0496e-10
-1.27258e-10
-1.49414e-10
-1.7149e-10
-1.93531e-10
-2.15492e-10
-2.37508e-10
-2.59505e-10
-2.81444e-10
-3.03439e-10
-3.25441e-10
-3.47383e-10
-3.69397e-10
-3.91371e-10
-4.13364e-10
-4.35393e-10
-4.57382e-10
-4.79375e-10
-5.01343e-10
-5.23325e-10
-5.45312e-10
-5.67313e-10
-5.89321e-10
-6.11299e-10
-6.33285e-10
-6.55293e-10
-6.77289e-10
-6.99299e-10
-7.21284e-10
-7.43228e-10
-7.65261e-10
-7.8724e-10
-8.09238e-10
-8.31236e-10
-8.53229e-10
-8.75215e-10
-8.97216e-10
-9.19201e-10
-9.412e-10
-9.63194e-10
-9.8518e-10
-1.0072e-09
-1.0292e-09
-1.05114e-09
-1.07316e-09
-1.09519e-09
-1.11719e-09
-1.13917e-09
-1.16117e-09
-1.18319e-09
-1.20523e-09
-1.22725e-09
-1.24927e-09
-1.27134e-09
-1.29342e-09
-1.31548e-09
-1.33769e-09
-1.35989e-09
-1.38221e-09
-1.40465e-09
-1.42724e-09
-1.45007e-09
-1.47323e-09
-1.49686e-09
-1.52119e-09
-1.54639e-09
-1.57291e-09
-1.60118e-09
-1.63193e-09
-1.66606e-09
-1.70482e-09
-1.74978e-09
-1.80302e-09
-1.867e-09
-1.94358e-09
-2.02899e-09
-2.15467e-09
-2.33503e-09
1.05422e-10
-2.07587e-11
-3.72295e-11
-5.97489e-11
-8.24866e-11
-1.04992e-10
-1.27226e-10
-1.49424e-10
-1.71482e-10
-1.93478e-10
-2.15539e-10
-2.37507e-10
-2.59458e-10
-2.81497e-10
-3.03444e-10
-3.25433e-10
-3.47407e-10
-3.69412e-10
-3.91421e-10
-4.13399e-10
-4.35355e-10
-4.57351e-10
-4.7934e-10
-5.01347e-10
-5.23329e-10
-5.45339e-10
-5.67336e-10
-5.89307e-10
-6.11326e-10
-6.33316e-10
-6.55294e-10
-6.77281e-10
-6.99265e-10
-7.21249e-10
-7.43304e-10
-7.65254e-10
-7.87244e-10
-8.09237e-10
-8.31232e-10
-8.53204e-10
-8.75219e-10
-8.9721e-10
-9.19201e-10
-9.41194e-10
-9.63194e-10
-9.85195e-10
-1.00717e-09
-1.02918e-09
-1.0512e-09
-1.07321e-09
-1.09517e-09
-1.11717e-09
-1.13918e-09
-1.16119e-09
-1.18319e-09
-1.2052e-09
-1.22723e-09
-1.24928e-09
-1.27131e-09
-1.29339e-09
-1.31554e-09
-1.33765e-09
-1.35986e-09
-1.38216e-09
-1.40456e-09
-1.42716e-09
-1.44998e-09
-1.47312e-09
-1.49675e-09
-1.52099e-09
-1.54616e-09
-1.57261e-09
-1.60082e-09
-1.63146e-09
-1.6655e-09
-1.70414e-09
-1.74895e-09
-1.80203e-09
-1.86581e-09
-1.94278e-09
-2.03138e-09
-2.15252e-09
-2.33415e-09
1.09024e-10
-2.81842e-11
-3.87014e-11
-5.9817e-11
-8.24698e-11
-1.04937e-10
-1.27258e-10
-1.49367e-10
-1.71486e-10
-1.93519e-10
-2.15485e-10
-2.37511e-10
-2.59506e-10
-2.81426e-10
-3.03449e-10
-3.25421e-10
-3.47405e-10
-3.69377e-10
-3.91368e-10
-4.13362e-10
-4.35382e-10
-4.57358e-10
-4.79364e-10
-5.01343e-10
-5.23336e-10
-5.45325e-10
-5.67303e-10
-5.89318e-10
-6.11289e-10
-6.33282e-10
-6.55293e-10
-6.7728e-10
-6.99276e-10
-7.21292e-10
-7.43228e-10
-7.65248e-10
-7.87266e-10
-8.09237e-10
-8.31239e-10
-8.53227e-10
-8.75218e-10
-8.97212e-10
-9.19204e-10
-9.412e-10
-9.63194e-10
-9.85193e-10
-1.00719e-09
-1.02918e-09
-1.05116e-09
-1.07314e-09
-1.09518e-09
-1.11717e-09
-1.13914e-09
-1.16117e-09
-1.18317e-09
-1.20521e-09
-1.22721e-09
-1.24924e-09
-1.27131e-09
-1.29336e-09
-1.31544e-09
-1.33761e-09
-1.35981e-09
-1.38211e-09
-1.40452e-09
-1.42708e-09
-1.44987e-09
-1.47297e-09
-1.49657e-09
-1.52077e-09
-1.54589e-09
-1.57228e-09
-1.60037e-09
-1.6309e-09
-1.66481e-09
-1.70324e-09
-1.74786e-09
-1.80071e-09
-1.86415e-09
-1.93946e-09
-2.02129e-09
-2.14655e-09
-2.33405e-09
1.21073e-10
-2.14915e-11
-3.78475e-11
-5.97479e-11
-8.24349e-11
-1.0495e-10
-1.27219e-10
-1.49386e-10
-1.71479e-10
-1.93488e-10
-2.15529e-10
-2.37497e-10
-2.59461e-10
-2.81488e-10
-3.03442e-10
-3.2544e-10
-3.47405e-10
-3.69423e-10
-3.91422e-10
-4.13402e-10
-4.35363e-10
-4.57363e-10
-4.79349e-10
-5.01344e-10
-5.23338e-10
-5.45327e-10
-5.67345e-10
-5.89314e-10
-6.11325e-10
-6.33314e-10
-6.55299e-10
-6.77286e-10
-6.99295e-10
-7.21247e-10
-7.43294e-10
-7.65279e-10
-7.87232e-10
-8.09249e-10
-8.31249e-10
-8.53224e-10
-8.75232e-10
-8.97213e-10
-9.19227e-10
-9.412e-10
-9.63214e-10
-9.85187e-10
-1.00719e-09
-1.02919e-09
-1.05117e-09
-1.0732e-09
-1.09516e-09
-1.11718e-09
-1.1392e-09
-1.16117e-09
-1.18318e-09
-1.20519e-09
-1.22722e-09
-1.24924e-09
-1.27129e-09
-1.29336e-09
-1.31547e-09
-1.33759e-09
-1.35979e-09
-1.38205e-09
-1.40445e-09
-1.42698e-09
-1.44976e-09
-1.47287e-09
-1.49638e-09
-1.52057e-09
-1.54558e-09
-1.57187e-09
-1.59987e-09
-1.63024e-09
-1.66398e-09
-1.70219e-09
-1.74655e-09
-1.79909e-09
-1.86213e-09
-1.93757e-09
-2.02449e-09
-2.13325e-09
-2.33659e-09
1.44646e-10
-3.00267e-11
-4.03182e-11
-5.97461e-11
-8.23717e-11
-1.04893e-10
-1.272e-10
-1.4936e-10
-1.71455e-10
-1.93491e-10
-2.15485e-10
-2.375e-10
-2.59484e-10
-2.81428e-10
-3.03441e-10
-3.2542e-10
-3.47403e-10
-3.69384e-10
-3.91367e-10
-4.13362e-10
-4.35369e-10
-4.57354e-10
-4.79347e-10
-5.01347e-10
-5.23332e-10
-5.45331e-10
-5.67305e-10
-5.89311e-10
-6.113e-10
-6.33287e-10
-6.55278e-10
-6.77278e-10
-6.99267e-10
-7.21285e-10
-7.43245e-10
-7.6524e-10
-7.87261e-10
-8.09244e-10
-8.31229e-10
-8.53238e-10
-8.75226e-10
-8.97211e-10
-9.19211e-10
-9.412e-10
-9.63188e-10
-9.8519e-10
-1.00718e-09
-1.02916e-09
-1.05117e-09
-1.07315e-09
-1.09517e-09
-1.11715e-09
-1.13914e-09
-1.16116e-09
-1.18316e-09
-1.20518e-09
-1.22719e-09
-1.24922e-09
-1.27127e-09
-1.29332e-09
-1.31541e-09
-1.33753e-09
-1.35971e-09
-1.38198e-09
-1.40437e-09
-1.42689e-09
-1.44963e-09
-1.47268e-09
-1.49618e-09
-1.5202e-09
-1.54525e-09
-1.57143e-09
-1.59929e-09
-1.62948e-09
-1.66299e-09
-1.70095e-09
-1.74502e-09
-1.79715e-09
-1.85967e-09
-1.9317e-09
-2.01485e-09
-2.11543e-09
-1.33838e-11
-4.01687e-11
-5.9497e-11
-8.22747e-11
-1.04866e-10
-1.27183e-10
-1.49355e-10
-1.71452e-10
-1.9349e-10
-2.15504e-10
-2.3749e-10
-2.5947e-10
-2.81477e-10
-3.03439e-10
-3.25431e-10
-3.4742e-10
-3.69408e-10
-3.91404e-10
-4.13395e-10
-4.35377e-10
-4.57365e-10
-4.7936e-10
-5.01343e-10
-5.23345e-10
-5.45328e-10
-5.6734e-10
-5.8932e-10
-6.1131e-10
-6.33311e-10
-6.55308e-10
-6.77288e-10
-6.99285e-10
-7.21263e-10
-7.4328e-10
-7.65273e-10
-7.87247e-10
-8.09248e-10
-8.31253e-10
-8.53236e-10
-8.75233e-10
-8.97232e-10
-9.19221e-10
-9.4121e-10
-9.63212e-10
-9.8519e-10
-1.00718e-09
-1.02919e-09
-1.05117e-09
-1.07318e-09
-1.09516e-09
-1.11717e-09
-1.13918e-09
-1.16116e-09
-1.18316e-09
-1.20517e-09
-1.2272e-09
-1.24923e-09
-1.27125e-09
-1.29332e-09
-1.3154e-09
-1.33752e-09
-1.35969e-09
-1.38194e-09
-1.4043e-09
-1.4268e-09
-1.44952e-09
-1.47255e-09
-1.49597e-09
-1.52002e-09
-1.54489e-09
-1.571e-09
-1.59871e-09
-1.62871e-09
-1.662e-09
-1.69967e-09
-1.74335e-09
-1.79504e-09
-1.85724e-09
-1.92829e-09
-2.0279e-09
1.50847e-13
-3.94958e-11
-5.91333e-11
-8.20987e-11
-1.04758e-10
-1.27113e-10
-1.49313e-10
-1.71419e-10
-1.93465e-10
-2.15477e-10
-2.37484e-10
-2.59473e-10
-2.81427e-10
-3.03432e-10
-3.25428e-10
-3.47396e-10
-3.69396e-10
-3.91377e-10
-4.1337e-10
-4.35361e-10
-4.57359e-10
-4.79341e-10
-5.01351e-10
-5.23333e-10
-5.45327e-10
-5.67314e-10
-5.89308e-10
-6.11312e-10
-6.33292e-10
-6.55269e-10
-6.77289e-10
-6.99268e-10
-7.2127e-10
-7.43259e-10
-7.65248e-10
-7.87247e-10
-8.09249e-10
-8.31229e-10
-8.53235e-10
-8.75224e-10
-8.97211e-10
-9.19212e-10
-9.41195e-10
-9.63185e-10
-9.85185e-10
-1.00718e-09
-1.02917e-09
-1.05117e-09
-1.07316e-09
-1.09516e-09
-1.11715e-09
-1.13914e-09
-1.16116e-09
-1.18315e-09
-1.20517e-09
-1.22717e-09
-1.24918e-09
-1.27123e-09
-1.29327e-09
-1.31536e-09
-1.33746e-09
-1.35962e-09
-1.38186e-09
-1.40419e-09
-1.42667e-09
-1.44935e-09
-1.47233e-09
-1.49574e-09
-1.51964e-09
-1.5445e-09
-1.57036e-09
-1.59798e-09
-1.62773e-09
-1.66075e-09
-1.69778e-09
-1.74117e-09
-1.79242e-09
-1.85399e-09
-1.9233e-09
-2.03732e-09
-1.54682e-11
-3.17432e-11
-5.70621e-11
-8.12756e-11
-1.04348e-10
-1.26898e-10
-1.49186e-10
-1.71324e-10
-1.93412e-10
-2.15448e-10
-2.37458e-10
-2.59457e-10
-2.81445e-10
-3.03441e-10
-3.25418e-10
-3.47406e-10
-3.694e-10
-3.9139e-10
-4.13378e-10
-4.35366e-10
-4.57368e-10
-4.79356e-10
-5.01331e-10
-5.2334e-10
-5.45329e-10
-5.6733e-10
-5.89321e-10
-6.11309e-10
-6.33291e-10
-6.553e-10
-6.77288e-10
-6.9928e-10
-7.21263e-10
-7.43271e-10
-7.65265e-10
-7.87251e-10
-8.09242e-10
-8.31232e-10
-8.53232e-10
-8.75231e-10
-8.97216e-10
-9.19209e-10
-9.41211e-10
-9.63196e-10
-9.85208e-10
-1.00719e-09
-1.0292e-09
-1.0512e-09
-1.0732e-09
-1.0952e-09
-1.11721e-09
-1.13922e-09
-1.16124e-09
-1.18325e-09
-1.20529e-09
-1.22734e-09
-1.2494e-09
-1.27146e-09
-1.29358e-09
-1.31573e-09
-1.33793e-09
-1.36018e-09
-1.38252e-09
-1.40499e-09
-1.42763e-09
-1.45048e-09
-1.47364e-09
-1.49723e-09
-1.52141e-09
-1.54637e-09
-1.57247e-09
-1.60003e-09
-1.62972e-09
-1.6623e-09
-1.69893e-09
-1.74114e-09
-1.79107e-09
-1.8519e-09
-1.92653e-09
-2.01138e-09
1.4546e-10
-2.33881e-11
-3.33847e-11
-5.76769e-11
-8.15386e-11
-1.04499e-10
-1.26986e-10
-1.49246e-10
-1.71367e-10
-1.93437e-10
-2.15474e-10
-2.37468e-10
-2.59462e-10
-2.81464e-10
-3.03433e-10
-3.25434e-10
-3.47428e-10
-3.69403e-10
-3.91391e-10
-4.1339e-10
-4.35379e-10
-4.57359e-10
-4.79358e-10
-5.01362e-10
-5.23351e-10
-5.45342e-10
-5.67329e-10
-5.89322e-10
-6.11319e-10
-6.3333e-10
-6.55299e-10
-6.77293e-10
-6.99291e-10
-7.21287e-10
-7.43274e-10
-7.65256e-10
-7.87255e-10
-8.09264e-10
-8.31245e-10
-8.53234e-10
-8.75238e-10
-8.97229e-10
-9.19218e-10
-9.4121e-10
-9.63207e-10
-9.85215e-10
-1.00722e-09
-1.0292e-09
-1.0512e-09
-1.0732e-09
-1.09522e-09
-1.11721e-09
-1.13923e-09
-1.16124e-09
-1.18327e-09
-1.2053e-09
-1.22733e-09
-1.24939e-09
-1.27149e-09
-1.29359e-09
-1.31572e-09
-1.33792e-09
-1.36017e-09
-1.38251e-09
-1.405e-09
-1.42763e-09
-1.45051e-09
-1.47369e-09
-1.49731e-09
-1.52153e-09
-1.54659e-09
-1.57277e-09
-1.60055e-09
-1.63055e-09
-1.66343e-09
-1.70045e-09
-1.74315e-09
-1.7936e-09
-1.85489e-09
-1.92987e-09
-2.0082e-09
-2.08869e-09
1.3159e-10
-1.11612e-11
-3.40667e-11
-5.81075e-11
-8.17192e-11
-1.04578e-10
-1.27028e-10
-1.49248e-10
-1.71375e-10
-1.93443e-10
-2.1546e-10
-2.37488e-10
-2.59466e-10
-2.81436e-10
-3.03457e-10
-3.25423e-10
-3.47392e-10
-3.69401e-10
-3.91394e-10
-4.13377e-10
-4.35372e-10
-4.57373e-10
-4.79354e-10
-5.01334e-10
-5.2334e-10
-5.45327e-10
-5.67333e-10
-5.89319e-10
-6.11306e-10
-6.33283e-10
-6.55303e-10
-6.77294e-10
-6.99264e-10
-7.21271e-10
-7.43264e-10
-7.6528e-10
-7.87264e-10
-8.09218e-10
-8.31239e-10
-8.5324e-10
-8.75227e-10
-8.97207e-10
-9.19219e-10
-9.41215e-10
-9.63205e-10
-9.85196e-10
-1.00719e-09
-1.0292e-09
-1.0512e-09
-1.07321e-09
-1.09518e-09
-1.11721e-09
-1.13921e-09
-1.16123e-09
-1.18325e-09
-1.20528e-09
-1.22734e-09
-1.24939e-09
-1.27144e-09
-1.29356e-09
-1.31569e-09
-1.33791e-09
-1.36016e-09
-1.3825e-09
-1.40497e-09
-1.42762e-09
-1.45048e-09
-1.4737e-09
-1.49734e-09
-1.52159e-09
-1.54669e-09
-1.57299e-09
-1.6009e-09
-1.63098e-09
-1.66423e-09
-1.70167e-09
-1.74487e-09
-1.79593e-09
-1.85775e-09
-1.93329e-09
-2.02501e-09
-2.09456e-09
-2.29994e-09
1.50761e-10
-1.34721e-11
-3.5016e-11
-5.85382e-11
-8.18982e-11
-1.04658e-10
-1.2708e-10
-1.49297e-10
-1.71396e-10
-1.93456e-10
-2.15478e-10
-2.37486e-10
-2.5947e-10
-2.81447e-10
-3.03431e-10
-3.25443e-10
-3.47434e-10
-3.694e-10
-3.91397e-10
-4.13394e-10
-4.35378e-10
-4.57336e-10
-4.79351e-10
-5.01378e-10
-5.2335e-10
-5.45337e-10
-5.67328e-10
-5.89308e-10
-6.11324e-10
-6.33331e-10
-6.55289e-10
-6.77296e-10
-6.9929e-10
-7.2129e-10
-7.4327e-10
-7.65251e-10
-7.87239e-10
-8.09279e-10
-8.31252e-10
-8.53213e-10
-8.75237e-10
-8.97231e-10
-9.19208e-10
-9.41214e-10
-9.63194e-10
-9.85215e-10
-1.0072e-09
-1.0292e-09
-1.05119e-09
-1.07318e-09
-1.09522e-09
-1.11721e-09
-1.13922e-09
-1.16122e-09
-1.18326e-09
-1.20528e-09
-1.22733e-09
-1.24938e-09
-1.27147e-09
-1.29358e-09
-1.3157e-09
-1.33786e-09
-1.36013e-09
-1.38249e-09
-1.40496e-09
-1.42763e-09
-1.4505e-09
-1.47369e-09
-1.49737e-09
-1.52165e-09
-1.54684e-09
-1.57317e-09
-1.60119e-09
-1.6315e-09
-1.665e-09
-1.70276e-09
-1.74643e-09
-1.79801e-09
-1.8603e-09
-1.93601e-09
-2.02618e-09
-2.04781e-09
-2.31752e-09
1.09933e-10
-9.25707e-12
-3.54261e-11
-5.89155e-11
-8.20832e-11
-1.04751e-10
-1.2713e-10
-1.49344e-10
-1.71417e-10
-1.93485e-10
-2.15499e-10
-2.37502e-10
-2.59472e-10
-2.8147e-10
-3.03458e-10
-3.25429e-10
-3.47391e-10
-3.69402e-10
-3.91403e-10
-4.13384e-10
-4.35372e-10
-4.57393e-10
-4.79356e-10
-5.01336e-10
-5.23357e-10
-5.45334e-10
-5.67333e-10
-5.89318e-10
-6.11314e-10
-6.33298e-10
-6.55308e-10
-6.7729e-10
-6.9929e-10
-7.21269e-10
-7.43265e-10
-7.65274e-10
-7.87279e-10
-8.09233e-10
-8.31247e-10
-8.53249e-10
-8.75236e-10
-8.97209e-10
-9.1923e-10
-9.41215e-10
-9.63203e-10
-9.8521e-10
-1.0072e-09
-1.02919e-09
-1.0512e-09
-1.0732e-09
-1.0952e-09
-1.11722e-09
-1.13921e-09
-1.16123e-09
-1.18324e-09
-1.20529e-09
-1.22732e-09
-1.24937e-09
-1.27143e-09
-1.29354e-09
-1.31567e-09
-1.33788e-09
-1.36013e-09
-1.38246e-09
-1.40497e-09
-1.42758e-09
-1.45046e-09
-1.4737e-09
-1.49736e-09
-1.52169e-09
-1.54687e-09
-1.57333e-09
-1.60145e-09
-1.6319e-09
-1.66554e-09
-1.70361e-09
-1.74764e-09
-1.79976e-09
-1.86254e-09
-1.93907e-09
-2.03352e-09
-2.09149e-09
-2.3055e-09
8.97874e-11
-1.27424e-11
-3.69571e-11
-5.94299e-11
-8.23134e-11
-1.04884e-10
-1.27249e-10
-1.49387e-10
-1.71494e-10
-1.93512e-10
-2.15522e-10
-2.37546e-10
-2.59506e-10
-2.8145e-10
-3.03462e-10
-3.25435e-10
-3.47453e-10
-3.69424e-10
-3.91407e-10
-4.13393e-10
-4.35389e-10
-4.57332e-10
-4.79393e-10
-5.01399e-10
-5.23337e-10
-5.45339e-10
-5.67345e-10
-5.89314e-10
-6.11344e-10
-6.33324e-10
-6.5531e-10
-6.77296e-10
-6.9931e-10
-7.21299e-10
-7.43274e-10
-7.6525e-10
-7.87277e-10
-8.09275e-10
-8.31265e-10
-8.53231e-10
-8.75268e-10
-8.97245e-10
-9.19211e-10
-9.41239e-10
-9.63214e-10
-9.85223e-10
-1.00722e-09
-1.02922e-09
-1.05119e-09
-1.07321e-09
-1.09519e-09
-1.11721e-09
-1.13922e-09
-1.16122e-09
-1.18326e-09
-1.20526e-09
-1.22733e-09
-1.24938e-09
-1.27145e-09
-1.29355e-09
-1.31568e-09
-1.33784e-09
-1.36011e-09
-1.38244e-09
-1.4049e-09
-1.4276e-09
-1.45045e-09
-1.4737e-09
-1.49736e-09
-1.5217e-09
-1.54695e-09
-1.5734e-09
-1.60165e-09
-1.63224e-09
-1.66608e-09
-1.70438e-09
-1.74877e-09
-1.80122e-09
-1.86425e-09
-1.94034e-09
-2.0352e-09
-2.13891e-09
-2.30135e-09
8.05716e-11
-1.62085e-11
-3.7969e-11
-5.97353e-11
-8.24687e-11
-1.04961e-10
-1.27284e-10
-1.49412e-10
-1.71496e-10
-1.93529e-10
-2.15536e-10
-2.37505e-10
-2.59496e-10
-2.81488e-10
-3.03462e-10
-3.25441e-10
-3.47402e-10
-3.69403e-10
-3.91407e-10
-4.13382e-10
-4.35363e-10
-4.57387e-10
-4.79333e-10
-5.01335e-10
-5.23377e-10
-5.45331e-10
-5.67326e-10
-5.8933e-10
-6.11299e-10
-6.33315e-10
-6.55301e-10
-6.77297e-10
-6.99276e-10
-7.21271e-10
-7.43272e-10
-7.65271e-10
-7.87266e-10
-8.0926e-10
-8.31259e-10
-8.5323e-10
-8.75239e-10
-8.97235e-10
-9.19227e-10
-9.41228e-10
-9.63178e-10
-9.85209e-10
-1.0072e-09
-1.0292e-09
-1.05122e-09
-1.07318e-09
-1.09519e-09
-1.11721e-09
-1.13922e-09
-1.16123e-09
-1.18321e-09
-1.20528e-09
-1.22727e-09
-1.24933e-09
-1.27142e-09
-1.29352e-09
-1.31565e-09
-1.33783e-09
-1.36007e-09
-1.38241e-09
-1.40487e-09
-1.4275e-09
-1.45042e-09
-1.47359e-09
-1.49732e-09
-1.52167e-09
-1.54693e-09
-1.57345e-09
-1.60174e-09
-1.63242e-09
-1.66641e-09
-1.7049e-09
-1.74952e-09
-1.8023e-09
-1.86548e-09
-1.94114e-09
-2.0342e-09
-2.15493e-09
-2.29978e-09
5.24957e-11
-1.46088e-11
-3.7296e-11
-5.98689e-11
-8.25463e-11
-1.05027e-10
-1.27312e-10
-1.49441e-10
-1.71513e-10
-1.93545e-10
-2.15547e-10
-2.37536e-10
-2.59529e-10
-2.81482e-10
-3.03448e-10
-3.25456e-10
-3.47438e-10
-3.69438e-10
-3.91407e-10
-4.13387e-10
-4.35381e-10
-4.57373e-10
-4.79398e-10
-5.01376e-10
-5.23321e-10
-5.45344e-10
-5.67341e-10
-5.89317e-10
-6.11351e-10
-6.33315e-10
-6.55323e-10
-6.77282e-10
-6.99311e-10
-7.21293e-10
-7.43264e-10
-7.65268e-10
-7.87278e-10
-8.09251e-10
-8.31251e-10
-8.53248e-10
-8.75237e-10
-8.97226e-10
-9.19213e-10
-9.41227e-10
-9.63212e-10
-9.85219e-10
-1.00721e-09
-1.02921e-09
-1.05118e-09
-1.0732e-09
-1.09521e-09
-1.11721e-09
-1.1392e-09
-1.16121e-09
-1.18323e-09
-1.20527e-09
-1.22733e-09
-1.24935e-09
-1.27143e-09
-1.2935e-09
-1.31561e-09
-1.33781e-09
-1.36006e-09
-1.38238e-09
-1.40484e-09
-1.42752e-09
-1.45034e-09
-1.47363e-09
-1.49726e-09
-1.52163e-09
-1.54688e-09
-1.57346e-09
-1.60177e-09
-1.63251e-09
-1.66659e-09
-1.70527e-09
-1.75004e-09
-1.803e-09
-1.86651e-09
-1.9433e-09
-2.03699e-09
-2.19261e-09
-2.30185e-09
5.00447e-11
-1.80618e-11
-3.82272e-11
-6.00018e-11
-8.26176e-11
-1.05061e-10
-1.27342e-10
-1.49437e-10
-1.71525e-10
-1.93546e-10
-2.15554e-10
-2.37491e-10
-2.59516e-10
-2.81485e-10
-3.03503e-10
-3.25422e-10
-3.47451e-10
-3.69388e-10
-3.91395e-10
-4.13395e-10
-4.35378e-10
-4.5736e-10
-4.79341e-10
-5.01338e-10
-5.23377e-10
-5.4534e-10
-5.67312e-10
-5.89334e-10
-6.11299e-10
-6.33319e-10
-6.553e-10
-6.77304e-10
-6.99272e-10
-7.21279e-10
-7.43288e-10
-7.65242e-10
-7.87269e-10
-8.09248e-10
-8.31247e-10
-8.53239e-10
-8.75233e-10
-8.9722e-10
-9.19217e-10
-9.41226e-10
-9.63201e-10
-9.85208e-10
-1.00718e-09
-1.02918e-09
-1.05122e-09
-1.07318e-09
-1.09518e-09
-1.11718e-09
-1.13922e-09
-1.16123e-09
-1.18324e-09
-1.20524e-09
-1.22724e-09
-1.24929e-09
-1.27139e-09
-1.29349e-09
-1.31563e-09
-1.33778e-09
-1.36002e-09
-1.38235e-09
-1.40479e-09
-1.42742e-09
-1.45031e-09
-1.47348e-09
-1.4972e-09
-1.52152e-09
-1.54683e-09
-1.57337e-09
-1.60173e-09
-1.6325e-09
-1.66663e-09
-1.70539e-09
-1.75029e-09
-1.80337e-09
-1.86702e-09
-1.94322e-09
-2.03521e-09
-2.19201e-09
-2.3031e-09
4.90674e-11
-1.55564e-11
-3.74041e-11
-5.99978e-11
-8.26646e-11
-1.05085e-10
-1.27338e-10
-1.49492e-10
-1.71516e-10
-1.93558e-10
-2.15519e-10
-2.37552e-10
-2.59529e-10
-2.81482e-10
-3.03427e-10
-3.25464e-10
-3.47426e-10
-3.69444e-10
-3.91392e-10
-4.13383e-10
-4.35374e-10
-4.57407e-10
-4.79382e-10
-5.0135e-10
-5.2333e-10
-5.45318e-10
-5.67361e-10
-5.89319e-10
-6.11338e-10
-6.33308e-10
-6.55308e-10
-6.77281e-10
-6.99317e-10
-7.21295e-10
-7.43258e-10
-7.65252e-10
-7.87269e-10
-8.09245e-10
-8.31243e-10
-8.53231e-10
-8.7523e-10
-8.97217e-10
-9.19217e-10
-9.41216e-10
-9.63189e-10
-9.85203e-10
-1.0072e-09
-1.02922e-09
-1.05117e-09
-1.07318e-09
-1.09521e-09
-1.1172e-09
-1.13919e-09
-1.1612e-09
-1.18319e-09
-1.20526e-09
-1.22732e-09
-1.24932e-09
-1.27139e-09
-1.29346e-09
-1.31554e-09
-1.33776e-09
-1.35998e-09
-1.38231e-09
-1.40474e-09
-1.4274e-09
-1.45021e-09
-1.47347e-09
-1.49708e-09
-1.52145e-09
-1.54667e-09
-1.57326e-09
-1.60159e-09
-1.63239e-09
-1.66653e-09
-1.70531e-09
-1.75025e-09
-1.80342e-09
-1.86719e-09
-1.9443e-09
-2.03779e-09
-2.1928e-09
-2.30393e-09
4.81398e-11
-1.69553e-11
-3.78804e-11
-6.0056e-11
-8.26658e-11
-1.05107e-10
-1.2736e-10
-1.49435e-10
-1.71531e-10
-1.93556e-10
-2.15565e-10
-2.3751e-10
-2.59511e-10
-2.81486e-10
-3.03503e-10
-3.25415e-10
-3.47469e-10
-3.69383e-10
-3.91411e-10
-4.13405e-10
-4.35373e-10
-4.57338e-10
-4.79346e-10
-5.01373e-10
-5.23367e-10
-5.45362e-10
-5.67301e-10
-5.89333e-10
-6.11322e-10
-6.33322e-10
-6.55307e-10
-6.77299e-10
-6.99266e-10
-7.2127e-10
-7.4329e-10
-7.65245e-10
-7.87277e-10
-8.09237e-10
-8.31237e-10
-8.5323e-10
-8.75229e-10
-8.97208e-10
-9.19212e-10
-9.41214e-10
-9.63202e-10
-9.85199e-10
-1.00719e-09
-1.02918e-09
-1.05123e-09
-1.0732e-09
-1.09516e-09
-1.11719e-09
-1.13922e-09
-1.16122e-09
-1.18324e-09
-1.20523e-09
-1.22721e-09
-1.24928e-09
-1.27136e-09
-1.29345e-09
-1.31558e-09
-1.3377e-09
-1.35995e-09
-1.38226e-09
-1.40469e-09
-1.4273e-09
-1.45016e-09
-1.47332e-09
-1.49699e-09
-1.52129e-09
-1.54653e-09
-1.57307e-09
-1.60141e-09
-1.63211e-09
-1.66627e-09
-1.70504e-09
-1.74999e-09
-1.8031e-09
-1.86687e-09
-1.94362e-09
-2.03632e-09
-2.19213e-09
-2.30422e-09
4.81118e-11
-1.69606e-11
-3.78798e-11
-6.00416e-11
-8.26726e-11
-1.05095e-10
-1.27356e-10
-1.49482e-10
-1.71526e-10
-1.93556e-10
-2.15527e-10
-2.37533e-10
-2.59542e-10
-2.81477e-10
-3.03425e-10
-3.25441e-10
-3.47437e-10
-3.69435e-10
-3.91362e-10
-4.13372e-10
-4.35389e-10
-4.57419e-10
-4.79381e-10
-5.01335e-10
-5.23342e-10
-5.45312e-10
-5.67354e-10
-5.89326e-10
-6.11309e-10
-6.33302e-10
-6.55285e-10
-6.77296e-10
-6.99306e-10
-7.21267e-10
-7.4327e-10
-7.65271e-10
-7.87241e-10
-8.09246e-10
-8.31233e-10
-8.53237e-10
-8.75218e-10
-8.97225e-10
-9.19209e-10
-9.41215e-10
-9.63197e-10
-9.85202e-10
-1.00719e-09
-1.0292e-09
-1.05117e-09
-1.07315e-09
-1.0952e-09
-1.11719e-09
-1.13918e-09
-1.16119e-09
-1.18317e-09
-1.20523e-09
-1.22729e-09
-1.24929e-09
-1.27135e-09
-1.29342e-09
-1.31549e-09
-1.33771e-09
-1.3599e-09
-1.38222e-09
-1.40464e-09
-1.42725e-09
-1.45004e-09
-1.47324e-09
-1.49682e-09
-1.52115e-09
-1.54634e-09
-1.57281e-09
-1.60109e-09
-1.63178e-09
-1.66586e-09
-1.70453e-09
-1.74936e-09
-1.80245e-09
-1.86613e-09
-1.94276e-09
-2.03542e-09
-2.19114e-09
-2.30316e-09
4.90378e-11
-1.57235e-11
-3.74489e-11
-6.00076e-11
-8.26462e-11
-1.05097e-10
-1.27332e-10
-1.49468e-10
-1.71501e-10
-1.93549e-10
-2.15553e-10
-2.37525e-10
-2.59512e-10
-2.81505e-10
-3.03472e-10
-3.25424e-10
-3.47467e-10
-3.69405e-10
-3.91401e-10
-4.13409e-10
-4.35367e-10
-4.57346e-10
-4.7934e-10
-5.01372e-10
-5.23364e-10
-5.45362e-10
-5.67315e-10
-5.89326e-10
-6.11307e-10
-6.33325e-10
-6.5533e-10
-6.77299e-10
-6.99276e-10
-7.21267e-10
-7.43266e-10
-7.65264e-10
-7.87292e-10
-8.09244e-10
-8.3123e-10
-8.53225e-10
-8.75228e-10
-8.97224e-10
-9.19212e-10
-9.41212e-10
-9.63196e-10
-9.85203e-10
-1.00719e-09
-1.02918e-09
-1.05121e-09
-1.07321e-09
-1.09517e-09
-1.11718e-09
-1.13922e-09
-1.1612e-09
-1.18323e-09
-1.20521e-09
-1.22719e-09
-1.24929e-09
-1.27132e-09
-1.29341e-09
-1.31554e-09
-1.33764e-09
-1.35987e-09
-1.38214e-09
-1.40457e-09
-1.42715e-09
-1.44998e-09
-1.4731e-09
-1.49672e-09
-1.52094e-09
-1.5461e-09
-1.57254e-09
-1.60071e-09
-1.6313e-09
-1.66529e-09
-1.70381e-09
-1.74854e-09
-1.80144e-09
-1.86495e-09
-1.94193e-09
-2.03532e-09
-2.18983e-09
-2.30158e-09
4.99643e-11
-1.79594e-11
-3.82082e-11
-5.99953e-11
-8.26056e-11
-1.05056e-10
-1.27328e-10
-1.49449e-10
-1.71512e-10
-1.93538e-10
-2.15553e-10
-2.37509e-10
-2.5952e-10
-2.81463e-10
-3.0344e-10
-3.25426e-10
-3.47431e-10
-3.69419e-10
-3.91369e-10
-4.13369e-10
-4.35383e-10
-4.574e-10
-4.79375e-10
-5.01341e-10
-5.23328e-10
-5.45318e-10
-5.6734e-10
-5.89332e-10
-6.11327e-10
-6.33298e-10
-6.55256e-10
-6.77303e-10
-6.99283e-10
-7.21308e-10
-7.43263e-10
-7.65269e-10
-7.87256e-10
-8.09248e-10
-8.31228e-10
-8.53247e-10
-8.75225e-10
-8.97226e-10
-9.19216e-10