/*--------------------------------*- C++ -*----------------------------------*\
| =========                 |                                                 |
| \\      /  F ield         | OpenFOAM: The Open Source CFD Toolbox           |
|  \\    /   O peration     | Version:  v1906                                 |
|   \\  /    A nd           | Web:      www.OpenFOAM.com                      |
|    \\/     M anipulation  |                                                 |
\*---------------------------------------------------------------------------*/
FoamFile
{
    version     2.0;
    format      ascii;
    class       volScalarField;
    location    "0.38";
    object      p;
}
// * * * * * * * * * * * * * * * * * * * * * * * * * * * * * * * * * * * * * //

dimensions      [0 2 -2 0 0 0 0];


internalField   nonuniform List<scalar> 
243374
(
-1.28446e-15
-9.36729e-10
-6.65456e-10
-6.81492e-10
-7.2018e-10
-7.57029e-10
-7.92474e-10
-8.28494e-10
-8.62612e-10
-8.9486e-10
-9.23571e-10
-9.53406e-10
-9.80355e-10
-1.00614e-09
-1.03109e-09
-1.05439e-09
-1.07788e-09
-1.10065e-09
-1.12215e-09
-1.14585e-09
-1.16844e-09
-1.19074e-09
-1.21311e-09
-1.23501e-09
-1.25614e-09
-1.27969e-09
-1.30042e-09
-1.32296e-09
-1.34539e-09
-1.36735e-09
-1.38948e-09
-1.41139e-09
-1.43356e-09
-1.45472e-09
-1.47777e-09
-1.50006e-09
-1.52088e-09
-1.54399e-09
-1.56497e-09
-1.58749e-09
-1.60887e-09
-1.63181e-09
-1.65239e-09
-1.67555e-09
-1.69702e-09
-1.71962e-09
-1.74036e-09
-1.76182e-09
-1.78445e-09
-1.8062e-09
-1.82805e-09
-1.84877e-09
-1.86953e-09
-1.89144e-09
-1.91133e-09
-1.93333e-09
-1.95463e-09
-1.97512e-09
-1.99578e-09
-2.01654e-09
-2.03758e-09
-2.05999e-09
-2.08446e-09
-2.11067e-09
-2.14128e-09
-2.17782e-09
-2.22492e-09
-2.28444e-09
-2.36571e-09
-2.47644e-09
-2.63327e-09
-2.8525e-09
-3.16041e-09
-3.60373e-09
-4.22157e-09
-5.08873e-09
-6.30484e-09
-7.96836e-09
-9.93961e-09
-1.41059e-08
-9.44827e-10
-7.90014e-10
-6.75476e-10
-6.9055e-10
-7.24695e-10
-7.60639e-10
-7.96443e-10
-8.31447e-10
-8.6459e-10
-8.96733e-10
-9.2775e-10
-9.55626e-10
-9.82292e-10
-1.00758e-09
-1.03233e-09
-1.05619e-09
-1.07963e-09
-1.10264e-09
-1.12541e-09
-1.1477e-09
-1.17058e-09
-1.19259e-09
-1.21463e-09
-1.23663e-09
-1.2593e-09
-1.28118e-09
-1.30316e-09
-1.32518e-09
-1.34709e-09
-1.36912e-09
-1.39103e-09
-1.41378e-09
-1.4354e-09
-1.45779e-09
-1.47943e-09
-1.50236e-09
-1.52393e-09
-1.54593e-09
-1.56745e-09
-1.58988e-09
-1.61133e-09
-1.63365e-09
-1.65622e-09
-1.6773e-09
-1.69985e-09
-1.72113e-09
-1.74302e-09
-1.76497e-09
-1.7863e-09
-1.80832e-09
-1.82959e-09
-1.85075e-09
-1.87192e-09
-1.89336e-09
-1.91477e-09
-1.93546e-09
-1.95626e-09
-1.97736e-09
-1.99848e-09
-2.0196e-09
-2.04138e-09
-2.06444e-09
-2.08811e-09
-2.11519e-09
-2.14635e-09
-2.18457e-09
-2.23268e-09
-2.29579e-09
-2.37988e-09
-2.49401e-09
-2.65497e-09
-2.87991e-09
-3.19836e-09
-3.6477e-09
-4.28197e-09
-5.17061e-09
-6.40865e-09
-8.10272e-09
-1.02859e-08
-1.33451e-08
-1.35925e-09
-7.60874e-10
-6.70533e-10
-6.90357e-10
-7.22419e-10
-7.56601e-10
-7.91916e-10
-8.28251e-10
-8.61812e-10
-8.9472e-10
-9.24968e-10
-9.53259e-10
-9.80102e-10
-1.00572e-09
-1.03018e-09
-1.05396e-09
-1.07708e-09
-1.10072e-09
-1.12301e-09
-1.14551e-09
-1.16865e-09
-1.19039e-09
-1.21273e-09
-1.23462e-09
-1.25693e-09
-1.27899e-09
-1.30077e-09
-1.32315e-09
-1.34524e-09
-1.36715e-09
-1.38955e-09
-1.41173e-09
-1.43367e-09
-1.4552e-09
-1.47779e-09
-1.49979e-09
-1.52213e-09
-1.54399e-09
-1.56634e-09
-1.58764e-09
-1.61043e-09
-1.63205e-09
-1.65398e-09
-1.6761e-09
-1.69754e-09
-1.71923e-09
-1.7412e-09
-1.76277e-09
-1.78465e-09
-1.80519e-09
-1.82747e-09
-1.84909e-09
-1.87049e-09
-1.89132e-09
-1.91271e-09
-1.93372e-09
-1.95459e-09
-1.97599e-09
-1.99726e-09
-2.01828e-09
-2.04033e-09
-2.06347e-09
-2.08766e-09
-2.1143e-09
-2.1471e-09
-2.18622e-09
-2.23531e-09
-2.29972e-09
-2.38594e-09
-2.50381e-09
-2.66892e-09
-2.89992e-09
-3.22586e-09
-3.68636e-09
-4.33457e-09
-5.24211e-09
-6.501e-09
-8.22624e-09
-1.04693e-08
-1.31088e-08
-5.42952e-10
9.80272e-10
-5.26224e-10
-6.61949e-10
-6.88508e-10
-7.20224e-10
-7.55503e-10
-7.91996e-10
-8.27919e-10
-8.62677e-10
-8.95137e-10
-9.26405e-10
-9.55121e-10
-9.81763e-10
-1.00693e-09
-1.03142e-09
-1.05529e-09
-1.07909e-09
-1.10095e-09
-1.12396e-09
-1.14674e-09
-1.1687e-09
-1.1912e-09
-1.21347e-09
-1.23593e-09
-1.2576e-09
-1.28017e-09
-1.3024e-09
-1.324e-09
-1.34604e-09
-1.36817e-09
-1.38987e-09
-1.412e-09
-1.4338e-09
-1.45652e-09
-1.47809e-09
-1.49992e-09
-1.52173e-09
-1.54348e-09
-1.56543e-09
-1.58728e-09
-1.60962e-09
-1.63158e-09
-1.65376e-09
-1.67597e-09
-1.69846e-09
-1.72047e-09
-1.74136e-09
-1.76322e-09
-1.78514e-09
-1.80705e-09
-1.8287e-09
-1.84991e-09
-1.87117e-09
-1.893e-09
-1.91363e-09
-1.935e-09
-1.95613e-09
-1.97697e-09
-1.99799e-09
-2.01926e-09
-2.04155e-09
-2.06492e-09
-2.09035e-09
-2.11871e-09
-2.15083e-09
-2.19016e-09
-2.24031e-09
-2.30626e-09
-2.39428e-09
-2.51493e-09
-2.68329e-09
-2.91928e-09
-3.25199e-09
-3.72179e-09
-4.38188e-09
-5.30526e-09
-6.58379e-09
-8.33672e-09
-1.08201e-08
-1.55129e-08
-1.718e-08
-2.55264e-10
-1.49647e-09
-7.81146e-10
-6.65958e-10
-6.8671e-10
-7.17716e-10
-7.53344e-10
-7.90351e-10
-8.26541e-10
-8.61247e-10
-8.94391e-10
-9.25477e-10
-9.53511e-10
-9.80367e-10
-1.00593e-09
-1.0304e-09
-1.05422e-09
-1.07746e-09
-1.1004e-09
-1.12329e-09
-1.14572e-09
-1.16829e-09
-1.1906e-09
-1.21275e-09
-1.23486e-09
-1.25699e-09
-1.27926e-09
-1.30115e-09
-1.32336e-09
-1.34534e-09
-1.36734e-09
-1.38926e-09
-1.41152e-09
-1.43329e-09
-1.4556e-09
-1.47728e-09
-1.49902e-09
-1.52101e-09
-1.54281e-09
-1.56493e-09
-1.58709e-09
-1.60924e-09
-1.63112e-09
-1.65311e-09
-1.67498e-09
-1.69736e-09
-1.71922e-09
-1.74071e-09
-1.76266e-09
-1.7846e-09
-1.80609e-09
-1.82767e-09
-1.84929e-09
-1.87068e-09
-1.89203e-09
-1.9132e-09
-1.93444e-09
-1.95543e-09
-1.97672e-09
-1.99793e-09
-2.0196e-09
-2.04205e-09
-2.06561e-09
-2.09091e-09
-2.11928e-09
-2.15254e-09
-2.19289e-09
-2.24381e-09
-2.311e-09
-2.40097e-09
-2.52377e-09
-2.69529e-09
-2.93531e-09
-3.27349e-09
-3.7507e-09
-4.42126e-09
-5.35714e-09
-6.65103e-09
-8.41917e-09
-1.06928e-08
-1.32636e-08
-1.73203e-08
-2.18187e-08
1.30841e-11
4.49583e-10
-5.33217e-10
-6.58244e-10
-6.85904e-10
-7.16384e-10
-7.52223e-10
-7.89384e-10
-8.25978e-10
-8.60925e-10
-8.94368e-10
-9.25463e-10
-9.53993e-10
-9.8045e-10
-1.0059e-09
-1.03046e-09
-1.05416e-09
-1.07755e-09
-1.10055e-09
-1.12314e-09
-1.14577e-09
-1.16825e-09
-1.19055e-09
-1.21282e-09
-1.23481e-09
-1.25705e-09
-1.27918e-09
-1.30125e-09
-1.3232e-09
-1.3454e-09
-1.36726e-09
-1.38927e-09
-1.41136e-09
-1.4333e-09
-1.45513e-09
-1.47677e-09
-1.49869e-09
-1.52078e-09
-1.54273e-09
-1.56482e-09
-1.58709e-09
-1.60932e-09
-1.63113e-09
-1.65304e-09
-1.67489e-09
-1.69694e-09
-1.71893e-09
-1.74059e-09
-1.76271e-09
-1.78446e-09
-1.80614e-09
-1.82782e-09
-1.84939e-09
-1.87077e-09
-1.89219e-09
-1.91336e-09
-1.93465e-09
-1.9558e-09
-1.97699e-09
-1.99856e-09
-2.02021e-09
-2.04289e-09
-2.0666e-09
-2.09235e-09
-2.12126e-09
-2.15478e-09
-2.19553e-09
-2.24744e-09
-2.31564e-09
-2.40683e-09
-2.53173e-09
-2.70522e-09
-2.94839e-09
-3.29074e-09
-3.7734e-09
-4.45139e-09
-5.39589e-09
-6.70042e-09
-8.48624e-09
-1.10035e-08
-1.51848e-08
-1.75245e-08
-2.15593e-08
-2.83684e-10
-8.18823e-10
-6.84796e-10
-6.61728e-10
-6.84978e-10
-7.15483e-10
-7.51436e-10
-7.88922e-10
-8.25592e-10
-8.6058e-10
-8.94201e-10
-9.25244e-10
-9.53684e-10
-9.80281e-10
-1.00566e-09
-1.03024e-09
-1.05394e-09
-1.07745e-09
-1.10044e-09
-1.12295e-09
-1.14562e-09
-1.16807e-09
-1.19036e-09
-1.21267e-09
-1.2347e-09
-1.25692e-09
-1.27893e-09
-1.30112e-09
-1.32311e-09
-1.34518e-09
-1.36708e-09
-1.38917e-09
-1.41116e-09
-1.43295e-09
-1.45481e-09
-1.47653e-09
-1.49856e-09
-1.5205e-09
-1.54241e-09
-1.56444e-09
-1.58628e-09
-1.6081e-09
-1.6301e-09
-1.65228e-09
-1.67436e-09
-1.69654e-09
-1.71862e-09
-1.74048e-09
-1.76259e-09
-1.78441e-09
-1.80608e-09
-1.8277e-09
-1.84932e-09
-1.87082e-09
-1.8922e-09
-1.91346e-09
-1.93473e-09
-1.95583e-09
-1.97725e-09
-1.99885e-09
-2.0208e-09
-2.04352e-09
-2.06751e-09
-2.09348e-09
-2.12264e-09
-2.15666e-09
-2.19781e-09
-2.25057e-09
-2.31944e-09
-2.41168e-09
-2.53778e-09
-2.71307e-09
-2.95818e-09
-3.30314e-09
-3.78925e-09
-4.47171e-09
-5.42141e-09
-6.7319e-09
-8.52263e-09
-1.09117e-08
-1.40417e-08
-1.75455e-08
-2.17202e-08
-6.21234e-10
-8.28202e-10
-6.8146e-10
-6.61565e-10
-6.84893e-10
-7.15464e-10
-7.51419e-10
-7.88927e-10
-8.25609e-10
-8.60596e-10
-8.94161e-10
-9.25261e-10
-9.5372e-10
-9.80244e-10
-1.00571e-09
-1.03027e-09
-1.05397e-09
-1.07756e-09
-1.10027e-09
-1.12289e-09
-1.14562e-09
-1.16805e-09
-1.19041e-09
-1.2127e-09
-1.23466e-09
-1.25692e-09
-1.27893e-09
-1.30103e-09
-1.32315e-09
-1.3452e-09
-1.36715e-09
-1.3892e-09
-1.41119e-09
-1.43306e-09
-1.45484e-09
-1.47671e-09
-1.49884e-09
-1.52077e-09
-1.54279e-09
-1.565e-09
-1.58696e-09
-1.60885e-09
-1.6307e-09
-1.65261e-09
-1.67455e-09
-1.69671e-09
-1.71875e-09
-1.7406e-09
-1.7627e-09
-1.7845e-09
-1.80623e-09
-1.82775e-09
-1.84947e-09
-1.87097e-09
-1.89235e-09
-1.91371e-09
-1.93498e-09
-1.9562e-09
-1.97769e-09
-1.99941e-09
-2.02149e-09
-2.04431e-09
-2.06846e-09
-2.09468e-09
-2.12414e-09
-2.15845e-09
-2.20005e-09
-2.25325e-09
-2.3226e-09
-2.41549e-09
-2.54245e-09
-2.71853e-09
-2.96464e-09
-3.31068e-09
-3.79796e-09
-4.48157e-09
-5.43248e-09
-6.74415e-09
-8.53578e-09
-1.09214e-08
-1.40657e-08
-1.75186e-08
-2.17631e-08
-8.24941e-10
3.8093e-10
-5.37757e-10
-6.59534e-10
-6.858e-10
-7.16491e-10
-7.52159e-10
-7.89393e-10
-8.25933e-10
-8.60922e-10
-8.94284e-10
-9.25447e-10
-9.54083e-10
-9.80587e-10
-1.00603e-09
-1.03071e-09
-1.05422e-09
-1.07767e-09
-1.101e-09
-1.12318e-09
-1.14567e-09
-1.16817e-09
-1.19059e-09
-1.21295e-09
-1.23486e-09
-1.25741e-09
-1.27907e-09
-1.3016e-09
-1.32324e-09
-1.3453e-09
-1.3675e-09
-1.38939e-09
-1.41175e-09
-1.43336e-09
-1.45511e-09
-1.47682e-09
-1.49881e-09
-1.5206e-09
-1.54242e-09
-1.56444e-09
-1.58662e-09
-1.60873e-09
-1.63069e-09
-1.65255e-09
-1.67462e-09
-1.69689e-09
-1.71913e-09
-1.74095e-09
-1.76313e-09
-1.78474e-09
-1.80664e-09
-1.82799e-09
-1.84968e-09
-1.87121e-09
-1.89276e-09
-1.91424e-09
-1.93542e-09
-1.95674e-09
-1.9783e-09
-2.00004e-09
-2.02251e-09
-2.04517e-09
-2.06954e-09
-2.09591e-09
-2.12553e-09
-2.16011e-09
-2.2022e-09
-2.25536e-09
-2.32514e-09
-2.41829e-09
-2.54555e-09
-2.72155e-09
-2.96773e-09
-3.31334e-09
-3.79953e-09
-4.48112e-09
-5.42931e-09
-6.73747e-09
-8.5283e-09
-1.10601e-08
-1.52888e-08
-1.74979e-08
-2.17421e-08
-8.58635e-10
-1.45739e-09
-7.78813e-10
-6.65086e-10
-6.86614e-10
-7.17646e-10
-7.5329e-10
-7.90435e-10
-8.26441e-10
-8.61278e-10
-8.94322e-10
-9.25381e-10
-9.536e-10
-9.80125e-10
-1.00598e-09
-1.0303e-09
-1.05422e-09
-1.0777e-09
-1.1e-09
-1.12311e-09
-1.14567e-09
-1.16807e-09
-1.19056e-09
-1.21271e-09
-1.23487e-09
-1.25665e-09
-1.27894e-09
-1.30072e-09
-1.32316e-09
-1.34529e-09
-1.36698e-09
-1.38936e-09
-1.41087e-09
-1.43339e-09
-1.45536e-09
-1.47737e-09
-1.49938e-09
-1.52109e-09
-1.543e-09
-1.56498e-09
-1.58697e-09
-1.60909e-09
-1.63123e-09
-1.65297e-09
-1.67532e-09
-1.69738e-09
-1.71947e-09
-1.74106e-09
-1.76273e-09
-1.78478e-09
-1.80608e-09
-1.828e-09
-1.84986e-09
-1.87113e-09
-1.89273e-09
-1.91382e-09
-1.93547e-09
-1.95682e-09
-1.97828e-09
-2.00043e-09
-2.02223e-09
-2.04577e-09
-2.07023e-09
-2.09679e-09
-2.12656e-09
-2.16132e-09
-2.2033e-09
-2.25683e-09
-2.32675e-09
-2.41961e-09
-2.54694e-09
-2.72238e-09
-2.96742e-09
-3.31097e-09
-3.79396e-09
-4.47088e-09
-5.41254e-09
-6.71236e-09
-8.48571e-09
-1.07572e-08
-1.33083e-08
-1.73953e-08
-2.1717e-08
-6.0508e-10
9.61727e-10
-5.36362e-10
-6.61672e-10
-6.88225e-10
-7.19782e-10
-7.55477e-10
-7.9194e-10
-8.28133e-10
-8.62431e-10
-8.95662e-10
-9.26356e-10
-9.54957e-10
-9.81693e-10
-1.00722e-09
-1.03156e-09
-1.05546e-09
-1.07867e-09
-1.10175e-09
-1.12419e-09
-1.146e-09
-1.1686e-09
-1.19157e-09
-1.21353e-09
-1.23588e-09
-1.25821e-09
-1.28021e-09
-1.30244e-09
-1.3244e-09
-1.3462e-09
-1.3683e-09
-1.39027e-09
-1.41277e-09
-1.43448e-09
-1.45648e-09
-1.47869e-09
-1.50102e-09
-1.52204e-09
-1.54374e-09
-1.56562e-09
-1.58764e-09
-1.60971e-09
-1.6321e-09
-1.65409e-09
-1.6766e-09
-1.69874e-09
-1.72075e-09
-1.74225e-09
-1.7641e-09
-1.78599e-09
-1.80753e-09
-1.82943e-09
-1.85061e-09
-1.87258e-09
-1.89399e-09
-1.91561e-09
-1.9369e-09
-1.95816e-09
-1.97915e-09
-2.00206e-09
-2.02435e-09
-2.04714e-09
-2.07196e-09
-2.09876e-09
-2.12871e-09
-2.16356e-09
-2.20557e-09
-2.25891e-09
-2.32884e-09
-2.42062e-09
-2.54694e-09
-2.72118e-09
-2.96419e-09
-3.30411e-09
-3.782e-09
-4.4507e-09
-5.38245e-09
-6.66898e-09
-8.43001e-09
-1.09305e-08
-1.56382e-08
-1.73442e-08
-2.20779e-08
-5.18877e-10
-1.36518e-09
-7.55532e-10
-6.69874e-10
-6.89783e-10
-7.21627e-10
-7.56571e-10
-7.92362e-10
-8.27483e-10
-8.62078e-10
-8.94469e-10
-9.25331e-10
-9.53588e-10
-9.80109e-10
-1.00548e-09
-1.02981e-09
-1.0535e-09
-1.07728e-09
-1.10017e-09
-1.12253e-09
-1.14568e-09
-1.16832e-09
-1.18974e-09
-1.21236e-09
-1.23434e-09
-1.25671e-09
-1.27867e-09
-1.30069e-09
-1.32252e-09
-1.34457e-09
-1.36666e-09
-1.38884e-09
-1.41078e-09
-1.43294e-09
-1.4551e-09
-1.47708e-09
-1.49929e-09
-1.52198e-09
-1.54365e-09
-1.5658e-09
-1.58758e-09
-1.60953e-09
-1.63211e-09
-1.65398e-09
-1.67528e-09
-1.69717e-09
-1.7187e-09
-1.74067e-09
-1.76245e-09
-1.78464e-09
-1.80608e-09
-1.827e-09
-1.84943e-09
-1.87093e-09
-1.89261e-09
-1.91342e-09
-1.93549e-09
-1.95717e-09
-1.97931e-09
-2.00091e-09
-2.02333e-09
-2.04646e-09
-2.07104e-09
-2.09806e-09
-2.12798e-09
-2.1622e-09
-2.2048e-09
-2.25816e-09
-2.32751e-09
-2.4196e-09
-2.54487e-09
-2.71717e-09
-2.95722e-09
-3.2926e-09
-3.7631e-09
-4.42205e-09
-5.34031e-09
-6.60971e-09
-8.34491e-09
-1.05911e-08
-1.32573e-08
-1.70829e-08
-9.39398e-10
-7.87878e-10
-6.74513e-10
-6.89769e-10
-7.26252e-10
-7.60661e-10
-7.96201e-10
-8.30875e-10
-8.64636e-10
-8.96728e-10
-9.26705e-10
-9.55276e-10
-9.82009e-10
-1.00818e-09
-1.03222e-09
-1.05672e-09
-1.07933e-09
-1.10209e-09
-1.12486e-09
-1.14819e-09
-1.17027e-09
-1.19295e-09
-1.21496e-09
-1.2365e-09
-1.25855e-09
-1.28073e-09
-1.30284e-09
-1.32503e-09
-1.34731e-09
-1.36894e-09
-1.39121e-09
-1.41318e-09
-1.4351e-09
-1.45699e-09
-1.47919e-09
-1.50142e-09
-1.52404e-09
-1.54645e-09
-1.5679e-09
-1.58985e-09
-1.61236e-09
-1.63412e-09
-1.65595e-09
-1.67717e-09
-1.69934e-09
-1.72184e-09
-1.74291e-09
-1.76509e-09
-1.78662e-09
-1.80815e-09
-1.83111e-09
-1.85213e-09
-1.87307e-09
-1.89494e-09
-1.91718e-09
-1.93795e-09
-1.95946e-09
-1.98122e-09
-2.00398e-09
-2.02535e-09
-2.04958e-09
-2.0738e-09
-2.10056e-09
-2.13039e-09
-2.16602e-09
-2.20777e-09
-2.26054e-09
-2.32893e-09
-2.4209e-09
-2.54333e-09
-2.71348e-09
-2.94911e-09
-3.27853e-09
-3.73965e-09
-4.38712e-09
-5.28876e-09
-6.53885e-09
-8.24503e-09
-1.04382e-08
-1.35105e-08
2.25864e-12
-9.33554e-10
-6.64578e-10
-6.81422e-10
-7.20023e-10
-7.56798e-10
-7.93093e-10
-8.27676e-10
-8.62531e-10
-8.94773e-10
-9.25498e-10
-9.53804e-10
-9.80286e-10
-1.00542e-09
-1.03032e-09
-1.05322e-09
-1.07765e-09
-1.10065e-09
-1.12318e-09
-1.14622e-09
-1.16826e-09
-1.18991e-09
-1.2118e-09
-1.23485e-09
-1.25757e-09
-1.27896e-09
-1.30095e-09
-1.32306e-09
-1.34355e-09
-1.36708e-09
-1.3899e-09
-1.41136e-09
-1.43338e-09
-1.45576e-09
-1.47741e-09
-1.49973e-09
-1.52266e-09
-1.54435e-09
-1.56614e-09
-1.58777e-09
-1.60999e-09
-1.63118e-09
-1.6539e-09
-1.67565e-09
-1.69761e-09
-1.71819e-09
-1.74138e-09
-1.76281e-09
-1.78544e-09
-1.80665e-09
-1.82789e-09
-1.84899e-09
-1.87181e-09
-1.8939e-09
-1.91473e-09
-1.93638e-09
-1.95804e-09
-1.98008e-09
-2.00119e-09
-2.02447e-09
-2.04805e-09
-2.07265e-09
-2.09942e-09
-2.12988e-09
-2.1625e-09
-2.20572e-09
-2.25695e-09
-2.32612e-09
-2.41539e-09
-2.53588e-09
-2.70215e-09
-2.93482e-09
-3.25623e-09
-3.71042e-09
-4.34425e-09
-5.22688e-09
-6.4563e-09
-8.13357e-09
-1.01171e-08
-1.42986e-08
2.81542e-11
-6.82608e-10
-6.66845e-10
-6.93657e-10
-7.23739e-10
-7.59853e-10
-7.95362e-10
-8.29696e-10
-8.63018e-10
-8.94432e-10
-9.23986e-10
-9.52966e-10
-9.80029e-10
-1.00597e-09
-1.03046e-09
-1.05368e-09
-1.07748e-09
-1.10039e-09
-1.12428e-09
-1.14514e-09
-1.16812e-09
-1.19038e-09
-1.21246e-09
-1.23369e-09
-1.25713e-09
-1.27882e-09
-1.30121e-09
-1.32235e-09
-1.34455e-09
-1.36769e-09
-1.38892e-09
-1.41106e-09
-1.43221e-09
-1.45529e-09
-1.47736e-09
-1.49908e-09
-1.52049e-09
-1.54264e-09
-1.56505e-09
-1.58691e-09
-1.60813e-09
-1.63078e-09
-1.65235e-09
-1.67493e-09
-1.69717e-09
-1.71795e-09
-1.74065e-09
-1.76157e-09
-1.78364e-09
-1.80559e-09
-1.82658e-09
-1.84805e-09
-1.86922e-09
-1.88991e-09
-1.91076e-09
-1.93249e-09
-1.95196e-09
-1.97131e-09
-1.99195e-09
-2.01328e-09
-2.03302e-09
-2.05351e-09
-2.07558e-09
-2.09878e-09
-2.12449e-09
-2.15567e-09
-2.19357e-09
-2.24198e-09
-2.30996e-09
-2.39923e-09
-2.5219e-09
-2.7008e-09
-2.94845e-09
-3.30607e-09
-3.8125e-09
-4.53338e-09
-5.56223e-09
-7.01672e-09
-9.0276e-09
-1.27001e-08
-1.05547e-09
-1.15947e-09
-6.34987e-10
-6.65028e-10
-6.97807e-10
-7.3041e-10
-7.63709e-10
-7.97884e-10
-8.31534e-10
-8.63707e-10
-8.95595e-10
-9.25603e-10
-9.53839e-10
-9.81919e-10
-1.00686e-09
-1.03196e-09
-1.05608e-09
-1.07889e-09
-1.10197e-09
-1.1248e-09
-1.14729e-09
-1.16903e-09
-1.19182e-09
-1.21412e-09
-1.23668e-09
-1.25869e-09
-1.28026e-09
-1.30232e-09
-1.32481e-09
-1.34647e-09
-1.36885e-09
-1.39105e-09
-1.41243e-09
-1.43459e-09
-1.45655e-09
-1.47896e-09
-1.50027e-09
-1.52287e-09
-1.54506e-09
-1.56626e-09
-1.58851e-09
-1.61145e-09
-1.63234e-09
-1.6541e-09
-1.67703e-09
-1.69812e-09
-1.72019e-09
-1.74214e-09
-1.76376e-09
-1.78595e-09
-1.80638e-09
-1.82782e-09
-1.84973e-09
-1.87089e-09
-1.89197e-09
-1.91295e-09
-1.93304e-09
-1.95402e-09
-1.97473e-09
-1.99463e-09
-2.01514e-09
-2.03681e-09
-2.05713e-09
-2.07857e-09
-2.10291e-09
-2.13032e-09
-2.16228e-09
-2.20296e-09
-2.25524e-09
-2.32368e-09
-2.41827e-09
-2.55114e-09
-2.73566e-09
-2.99856e-09
-3.37368e-09
-3.90565e-09
-4.66215e-09
-5.73456e-09
-7.24897e-09
-9.3774e-09
-1.18443e-08
-1.49006e-08
-4.77784e-10
4.31918e-10
-5.89041e-10
-6.59763e-10
-6.93757e-10
-7.26316e-10
-7.5972e-10
-7.93553e-10
-8.27366e-10
-8.61087e-10
-8.92963e-10
-9.24108e-10
-9.53576e-10
-9.79978e-10
-1.00602e-09
-1.03081e-09
-1.05418e-09
-1.07824e-09
-1.10086e-09
-1.12319e-09
-1.14636e-09
-1.16857e-09
-1.19103e-09
-1.21312e-09
-1.23461e-09
-1.25676e-09
-1.27885e-09
-1.30149e-09
-1.3232e-09
-1.34532e-09
-1.36732e-09
-1.38852e-09
-1.41122e-09
-1.43341e-09
-1.45544e-09
-1.47731e-09
-1.49995e-09
-1.52154e-09
-1.54315e-09
-1.56552e-09
-1.58746e-09
-1.60984e-09
-1.63139e-09
-1.65339e-09
-1.67445e-09
-1.69734e-09
-1.71874e-09
-1.7412e-09
-1.7626e-09
-1.78436e-09
-1.80599e-09
-1.82674e-09
-1.84871e-09
-1.86995e-09
-1.89158e-09
-1.9117e-09
-1.93206e-09
-1.95287e-09
-1.97373e-09
-1.99459e-09
-2.01501e-09
-2.03532e-09
-2.0571e-09
-2.07972e-09
-2.10481e-09
-2.13237e-09
-2.16648e-09
-2.2078e-09
-2.26368e-09
-2.33637e-09
-2.4361e-09
-2.57425e-09
-2.77097e-09
-3.04821e-09
-3.44405e-09
-4.00368e-09
-4.79591e-09
-5.91374e-09
-7.48316e-09
-9.70784e-09
-1.37539e-08
-1.54805e-08
-1.85969e-08
-4.88103e-10
-6.20118e-10
-6.07133e-10
-6.57629e-10
-6.89558e-10
-7.22758e-10
-7.57131e-10
-7.90892e-10
-8.26979e-10
-8.6056e-10
-8.93085e-10
-9.246e-10
-9.52101e-10
-9.80402e-10
-1.00664e-09
-1.03072e-09
-1.05542e-09
-1.07762e-09
-1.10162e-09
-1.12383e-09
-1.14618e-09
-1.16842e-09
-1.19002e-09
-1.21388e-09
-1.23612e-09
-1.25727e-09
-1.27911e-09
-1.30047e-09
-1.32407e-09
-1.34627e-09
-1.36779e-09
-1.38891e-09
-1.41143e-09
-1.43442e-09
-1.45686e-09
-1.47822e-09
-1.49829e-09
-1.522e-09
-1.54382e-09
-1.56481e-09
-1.58659e-09
-1.61014e-09
-1.63127e-09
-1.65342e-09
-1.67637e-09
-1.69622e-09
-1.71875e-09
-1.7418e-09
-1.76323e-09
-1.78486e-09
-1.80491e-09
-1.82757e-09
-1.84927e-09
-1.87128e-09
-1.89028e-09
-1.91251e-09
-1.93347e-09
-1.95337e-09
-1.97511e-09
-1.99414e-09
-2.01613e-09
-2.03712e-09
-2.05823e-09
-2.08198e-09
-2.10636e-09
-2.137e-09
-2.1713e-09
-2.21488e-09
-2.27253e-09
-2.34761e-09
-2.45248e-09
-2.5991e-09
-2.80435e-09
-3.09591e-09
-3.51063e-09
-4.0953e-09
-4.92112e-09
-6.08004e-09
-7.69785e-09
-9.95547e-09
-1.2995e-08
-1.57937e-08
-1.91614e-08
-5.36823e-10
-4.40419e-10
-5.62916e-10
-6.54101e-10
-6.86919e-10
-7.21994e-10
-7.58832e-10
-7.9592e-10
-8.29957e-10
-8.64055e-10
-8.96286e-10
-9.25847e-10
-9.5587e-10
-9.81396e-10
-1.00727e-09
-1.03285e-09
-1.05583e-09
-1.08044e-09
-1.10212e-09
-1.12439e-09
-1.14708e-09
-1.1699e-09
-1.19363e-09
-1.2143e-09
-1.23637e-09
-1.25793e-09
-1.28155e-09
-1.30399e-09
-1.32409e-09
-1.34667e-09
-1.3687e-09
-1.39192e-09
-1.41364e-09
-1.43501e-09
-1.45612e-09
-1.47911e-09
-1.50312e-09
-1.52255e-09
-1.54504e-09
-1.56755e-09
-1.59022e-09
-1.61116e-09
-1.63371e-09
-1.65411e-09
-1.67689e-09
-1.70035e-09
-1.72154e-09
-1.74171e-09
-1.76353e-09
-1.78571e-09
-1.8089e-09
-1.82966e-09
-1.85002e-09
-1.87097e-09
-1.89413e-09
-1.91313e-09
-1.93434e-09
-1.95632e-09
-1.97615e-09
-1.99819e-09
-2.01741e-09
-2.03895e-09
-2.06188e-09
-2.08462e-09
-2.11245e-09
-2.14092e-09
-2.17691e-09
-2.22369e-09
-2.2823e-09
-2.36353e-09
-2.47412e-09
-2.62631e-09
-2.84164e-09
-3.14649e-09
-3.57782e-09
-4.18676e-09
-5.04355e-09
-6.23892e-09
-7.89896e-09
-1.02494e-08
-1.34596e-08
-1.60687e-08
-2.0596e-08
-5.99716e-10
-1.07685e-09
-6.48294e-10
-6.64769e-10
-6.91773e-10
-7.28333e-10
-7.65252e-10
-8.01261e-10
-8.3547e-10
-8.68224e-10
-8.99958e-10
-9.30722e-10
-9.57799e-10
-9.8436e-10
-1.00976e-09
-1.03405e-09
-1.05786e-09
-1.08111e-09
-1.10421e-09
-1.12805e-09
-1.14907e-09
-1.17265e-09
-1.19436e-09
-1.21633e-09
-1.23856e-09
-1.2609e-09
-1.28222e-09
-1.30478e-09
-1.32741e-09
-1.34863e-09
-1.37023e-09
-1.39236e-09
-1.41576e-09
-1.43693e-09
-1.46005e-09
-1.48065e-09
-1.50396e-09
-1.52673e-09
-1.54755e-09
-1.57112e-09
-1.59252e-09
-1.61498e-09
-1.63697e-09
-1.65842e-09
-1.67955e-09
-1.70135e-09
-1.72225e-09
-1.74541e-09
-1.76678e-09
-1.78771e-09
-1.80982e-09
-1.83065e-09
-1.8515e-09
-1.87501e-09
-1.89466e-09
-1.91663e-09
-1.93644e-09
-1.95734e-09
-1.97866e-09
-1.99915e-09
-2.02139e-09
-2.04256e-09
-2.06572e-09
-2.08833e-09
-2.11568e-09
-2.1455e-09
-2.18454e-09
-2.23097e-09
-2.29487e-09
-2.37894e-09
-2.49288e-09
-2.65267e-09
-2.87653e-09
-3.19204e-09
-3.63805e-09
-4.26638e-09
-5.14862e-09
-6.3767e-09
-8.0695e-09
-1.03833e-08
-1.30987e-08
-1.64899e-08
-2.09407e-08
-6.2033e-10
-1.14733e-09
-6.8147e-10
-6.67001e-10
-6.93692e-10
-7.28894e-10
-7.65455e-10
-8.00905e-10
-8.3507e-10
-8.67057e-10
-8.98959e-10
-9.2918e-10
-9.57053e-10
-9.83111e-10
-1.00841e-09
-1.03291e-09
-1.05622e-09
-1.07976e-09
-1.10263e-09
-1.12599e-09
-1.14768e-09
-1.17097e-09
-1.19184e-09
-1.21447e-09
-1.23679e-09
-1.25834e-09
-1.2814e-09
-1.3029e-09
-1.32468e-09
-1.34707e-09
-1.36926e-09
-1.39196e-09
-1.41363e-09
-1.43621e-09
-1.45731e-09
-1.48029e-09
-1.50223e-09
-1.52496e-09
-1.54641e-09
-1.56926e-09
-1.59109e-09
-1.61333e-09
-1.63527e-09
-1.65685e-09
-1.67809e-09
-1.69982e-09
-1.72129e-09
-1.74351e-09
-1.76465e-09
-1.78579e-09
-1.80796e-09
-1.82973e-09
-1.85067e-09
-1.87244e-09
-1.8937e-09
-1.91418e-09
-1.93559e-09
-1.95663e-09
-1.97702e-09
-1.99938e-09
-2.01991e-09
-2.04207e-09
-2.06545e-09
-2.08902e-09
-2.11644e-09
-2.14782e-09
-2.18661e-09
-2.23637e-09
-2.3006e-09
-2.38699e-09
-2.50512e-09
-2.66945e-09
-2.89985e-09
-3.22442e-09
-3.68193e-09
-4.32583e-09
-5.22822e-09
-6.48137e-09
-8.19998e-09
-1.05112e-08
-1.32199e-08
-1.68048e-08
-2.12387e-08
-6.16606e-10
-8.04782e-10
-5.99271e-10
-6.62447e-10
-6.93563e-10
-7.29174e-10
-7.65321e-10
-8.00772e-10
-8.34923e-10
-8.67365e-10
-8.99303e-10
-9.29747e-10
-9.58736e-10
-9.85011e-10
-1.01017e-09
-1.0347e-09
-1.05814e-09
-1.08166e-09
-1.10431e-09
-1.12626e-09
-1.1492e-09
-1.17126e-09
-1.19367e-09
-1.21617e-09
-1.23849e-09
-1.26034e-09
-1.28274e-09
-1.30479e-09
-1.32687e-09
-1.34864e-09
-1.37072e-09
-1.3924e-09
-1.41471e-09
-1.43652e-09
-1.45922e-09
-1.48052e-09
-1.50252e-09
-1.5244e-09
-1.54635e-09
-1.56854e-09
-1.59052e-09
-1.61273e-09
-1.63482e-09
-1.65645e-09
-1.67817e-09
-1.70034e-09
-1.72299e-09
-1.74379e-09
-1.7663e-09
-1.78762e-09
-1.80846e-09
-1.8312e-09
-1.85211e-09
-1.87425e-09
-1.89535e-09
-1.91637e-09
-1.93725e-09
-1.95842e-09
-1.97914e-09
-2.00026e-09
-2.02192e-09
-2.04435e-09
-2.06689e-09
-2.09213e-09
-2.12046e-09
-2.15281e-09
-2.19244e-09
-2.24314e-09
-2.30832e-09
-2.39638e-09
-2.51743e-09
-2.68543e-09
-2.92077e-09
-3.25208e-09
-3.71921e-09
-4.37522e-09
-5.29341e-09
-6.56749e-09
-8.31396e-09
-1.07187e-08
-1.37256e-08
-1.79154e-08
-2.15498e-08
-6.20279e-10
-1.16241e-09
-7.23053e-10
-6.65251e-10
-6.92693e-10
-7.28385e-10
-7.64428e-10
-7.99882e-10
-8.33963e-10
-8.66587e-10
-8.987e-10
-9.29318e-10
-9.57951e-10
-9.84493e-10
-1.00962e-09
-1.03338e-09
-1.05715e-09
-1.08058e-09
-1.10332e-09
-1.12627e-09
-1.14824e-09
-1.17111e-09
-1.19306e-09
-1.21532e-09
-1.23774e-09
-1.25918e-09
-1.28192e-09
-1.30318e-09
-1.32602e-09
-1.34758e-09
-1.36996e-09
-1.39197e-09
-1.41416e-09
-1.43618e-09
-1.45805e-09
-1.47963e-09
-1.5017e-09
-1.52356e-09
-1.54573e-09
-1.56778e-09
-1.5898e-09
-1.61194e-09
-1.63403e-09
-1.6556e-09
-1.67725e-09
-1.6996e-09
-1.72187e-09
-1.74347e-09
-1.76542e-09
-1.78714e-09
-1.80849e-09
-1.83042e-09
-1.85135e-09
-1.87356e-09
-1.89439e-09
-1.91587e-09
-1.93674e-09
-1.95768e-09
-1.97891e-09
-2.00046e-09
-2.02212e-09
-2.04454e-09
-2.06782e-09
-2.09291e-09
-2.12082e-09
-2.15449e-09
-2.1953e-09
-2.24648e-09
-2.31317e-09
-2.40367e-09
-2.52706e-09
-2.69836e-09
-2.93794e-09
-3.27492e-09
-3.74935e-09
-4.41527e-09
-5.3458e-09
-6.63433e-09
-8.3972e-09
-1.07173e-08
-1.34425e-08
-1.79994e-08
-2.18196e-08
-5.53752e-10
-4.23844e-10
-5.89509e-10
-6.59985e-10
-6.92996e-10
-7.28003e-10
-7.63913e-10
-7.99252e-10
-8.33473e-10
-8.66315e-10
-8.98513e-10
-9.29407e-10
-9.58165e-10
-9.84786e-10
-1.00975e-09
-1.03419e-09
-1.05799e-09
-1.08065e-09
-1.10394e-09
-1.1264e-09
-1.1483e-09
-1.17118e-09
-1.1932e-09
-1.21576e-09
-1.2377e-09
-1.25977e-09
-1.28197e-09
-1.30392e-09
-1.32598e-09
-1.34815e-09
-1.37011e-09
-1.39199e-09
-1.41413e-09
-1.43609e-09
-1.45756e-09
-1.47938e-09
-1.50137e-09
-1.52317e-09
-1.54546e-09
-1.56754e-09
-1.58954e-09
-1.61165e-09
-1.63373e-09
-1.65512e-09
-1.67688e-09
-1.69922e-09
-1.72167e-09
-1.74348e-09
-1.76547e-09
-1.78711e-09
-1.80871e-09
-1.8306e-09
-1.85228e-09
-1.87359e-09
-1.89475e-09
-1.91601e-09
-1.93725e-09
-1.9587e-09
-1.97953e-09
-2.00135e-09
-2.0229e-09
-2.04552e-09
-2.069e-09
-2.09472e-09
-2.12403e-09
-2.15712e-09
-2.19853e-09
-2.2503e-09
-2.31832e-09
-2.41021e-09
-2.53535e-09
-2.70894e-09
-2.95172e-09
-3.29291e-09
-3.77267e-09
-4.44555e-09
-5.38463e-09
-6.68373e-09
-8.46277e-09
-1.09156e-08
-1.42543e-08
-1.82193e-08
-2.20017e-08
-5.95648e-10
-8.2063e-10
-6.68004e-10
-6.62171e-10
-6.92685e-10
-7.27717e-10
-7.63645e-10
-7.99026e-10
-8.33239e-10
-8.661e-10
-8.98344e-10
-9.29275e-10
-9.58151e-10
-9.84727e-10
-1.0096e-09
-1.03392e-09
-1.05782e-09
-1.08062e-09
-1.10349e-09
-1.12637e-09
-1.14825e-09
-1.17109e-09
-1.19304e-09
-1.21561e-09
-1.23758e-09
-1.25972e-09
-1.28165e-09
-1.30364e-09
-1.3259e-09
-1.34798e-09
-1.36992e-09
-1.39185e-09
-1.41383e-09
-1.43574e-09
-1.45727e-09
-1.4792e-09
-1.50128e-09
-1.52306e-09
-1.54539e-09
-1.5675e-09
-1.58948e-09
-1.61152e-09
-1.63354e-09
-1.65493e-09
-1.67668e-09
-1.69901e-09
-1.72131e-09
-1.74319e-09
-1.76531e-09
-1.78718e-09
-1.80868e-09
-1.83046e-09
-1.85211e-09
-1.87366e-09
-1.89491e-09
-1.91608e-09
-1.93752e-09
-1.95869e-09
-1.98008e-09
-2.00158e-09
-2.0236e-09
-2.04618e-09
-2.06987e-09
-2.09616e-09
-2.12525e-09
-2.15925e-09
-2.20101e-09
-2.2536e-09
-2.32245e-09
-2.41542e-09
-2.54173e-09
-2.71707e-09
-2.96194e-09
-3.30575e-09
-3.78892e-09
-4.46597e-09
-5.40987e-09
-6.715e-09
-8.49949e-09
-1.08849e-08
-1.39153e-08
-1.82272e-08
-2.21126e-08
-6.0279e-10
-8.42702e-10
-6.69974e-10
-6.62219e-10
-6.92613e-10
-7.27709e-10
-7.63648e-10
-7.99022e-10
-8.3326e-10
-8.66097e-10
-8.98314e-10
-9.29285e-10
-9.58107e-10
-9.84782e-10
-1.0096e-09
-1.03385e-09
-1.05766e-09
-1.08064e-09
-1.10344e-09
-1.12637e-09
-1.14827e-09
-1.17107e-09
-1.19306e-09
-1.21555e-09
-1.23754e-09
-1.25972e-09
-1.28152e-09
-1.30374e-09
-1.3258e-09
-1.34804e-09
-1.36997e-09
-1.39187e-09
-1.41373e-09
-1.43578e-09
-1.45721e-09
-1.47912e-09
-1.50132e-09
-1.52298e-09
-1.54537e-09
-1.56748e-09
-1.58951e-09
-1.61145e-09
-1.63351e-09
-1.65495e-09
-1.67674e-09
-1.69905e-09
-1.72128e-09
-1.74322e-09
-1.76538e-09
-1.78722e-09
-1.8089e-09
-1.83049e-09
-1.85226e-09
-1.87371e-09
-1.89507e-09
-1.91621e-09
-1.93775e-09
-1.95896e-09
-1.98048e-09
-2.00218e-09
-2.02418e-09
-2.04704e-09
-2.07087e-09
-2.09733e-09
-2.12676e-09
-2.16118e-09
-2.20305e-09
-2.25637e-09
-2.32583e-09
-2.41945e-09
-2.54659e-09
-2.72272e-09
-2.9686e-09
-3.31354e-09
-3.79785e-09
-4.47611e-09
-5.42121e-09
-6.72755e-09
-8.51335e-09
-1.09006e-08
-1.3954e-08
-1.82507e-08
-2.21524e-08
-5.50624e-10
-4.65613e-10
-5.90523e-10
-6.6035e-10
-6.92743e-10
-7.28066e-10
-7.63875e-10
-7.9926e-10
-8.33451e-10
-8.66283e-10
-8.9852e-10
-9.29381e-10
-9.58143e-10
-9.84838e-10
-1.00969e-09
-1.03397e-09
-1.05741e-09
-1.08061e-09
-1.1036e-09
-1.1263e-09
-1.14836e-09
-1.17107e-09
-1.19326e-09
-1.21544e-09
-1.23751e-09
-1.25977e-09
-1.28177e-09
-1.30382e-09
-1.32589e-09
-1.34809e-09
-1.37026e-09
-1.39188e-09
-1.41398e-09
-1.43595e-09
-1.4574e-09
-1.47925e-09
-1.5015e-09
-1.523e-09
-1.54528e-09
-1.56735e-09
-1.58944e-09
-1.61148e-09
-1.63346e-09
-1.6551e-09
-1.67693e-09
-1.69937e-09
-1.72155e-09
-1.74351e-09
-1.76575e-09
-1.78736e-09
-1.80923e-09
-1.83065e-09
-1.85258e-09
-1.87399e-09
-1.89559e-09
-1.91659e-09
-1.938e-09
-1.95935e-09
-1.98112e-09
-2.00294e-09
-2.02492e-09
-2.04792e-09
-2.07203e-09
-2.09848e-09
-2.12808e-09
-2.16287e-09
-2.20525e-09
-2.25852e-09
-2.32843e-09
-2.42222e-09
-2.54972e-09
-2.72592e-09
-2.97173e-09
-3.31619e-09
-3.79945e-09
-4.47599e-09
-5.41857e-09
-6.72144e-09
-8.50484e-09
-1.09661e-08
-1.43303e-08
-1.8257e-08
-2.21073e-08
-6.44015e-10
-1.16984e-09
-7.15502e-10
-6.64623e-10
-6.92869e-10
-7.28327e-10
-7.6434e-10
-7.99865e-10
-8.33964e-10
-8.66603e-10
-8.98614e-10
-9.29309e-10
-9.57905e-10
-9.84615e-10
-1.00938e-09
-1.03385e-09
-1.05728e-09
-1.08047e-09
-1.1032e-09
-1.12617e-09
-1.14837e-09
-1.1709e-09
-1.19326e-09
-1.21527e-09
-1.23756e-09
-1.25952e-09
-1.28171e-09
-1.3036e-09
-1.32581e-09
-1.34763e-09
-1.36974e-09
-1.39178e-09
-1.41386e-09
-1.43592e-09
-1.4578e-09
-1.47953e-09
-1.50204e-09
-1.52329e-09
-1.54547e-09
-1.56757e-09
-1.58969e-09