/*--------------------------------*- C++ -*----------------------------------*\
| =========                 |                                                 |
| \\      /  F ield         | OpenFOAM: The Open Source CFD Toolbox           |
|  \\    /   O peration     | Version:  v1906                                 |
|   \\  /    A nd           | Web:      www.OpenFOAM.com                      |
|    \\/     M anipulation  |                                                 |
\*---------------------------------------------------------------------------*/
FoamFile
{
    version     2.0;
    format      ascii;
    class       volScalarField;
    location    "15.5";
    object      p;
}
// * * * * * * * * * * * * * * * * * * * * * * * * * * * * * * * * * * * * * //

dimensions      [0 2 -2 0 0 0 0];


internalField   nonuniform List<scalar> 
243374
(
7.51005e-16
-3.99631e-11
-5.94674e-11
-8.24549e-11
-1.05135e-10
-1.27485e-10
-1.49727e-10
-1.71827e-10
-1.93905e-10
-2.15936e-10
-2.37947e-10
-2.59966e-10
-2.81992e-10
-3.03975e-10
-3.25995e-10
-3.47963e-10
-3.70014e-10
-3.9203e-10
-4.14053e-10
-4.36069e-10
-4.58116e-10
-4.80104e-10
-5.02103e-10
-5.24147e-10
-5.46158e-10
-5.6817e-10
-5.90191e-10
-6.12216e-10
-6.34223e-10
-6.56254e-10
-6.78268e-10
-7.00283e-10
-7.22298e-10
-7.4432e-10
-7.66355e-10
-7.88357e-10
-8.10357e-10
-8.32384e-10
-8.54425e-10
-8.7642e-10
-8.9843e-10
-9.2048e-10
-9.4248e-10
-9.64507e-10
-9.86518e-10
-1.00855e-09
-1.03057e-09
-1.05258e-09
-1.07462e-09
-1.09665e-09
-1.11869e-09
-1.1407e-09
-1.16274e-09
-1.18476e-09
-1.20684e-09
-1.22889e-09
-1.25097e-09
-1.27306e-09
-1.29517e-09
-1.31731e-09
-1.33952e-09
-1.36177e-09
-1.38411e-09
-1.40656e-09
-1.42917e-09
-1.45199e-09
-1.47514e-09
-1.49869e-09
-1.52282e-09
-1.54775e-09
-1.57384e-09
-1.60145e-09
-1.63122e-09
-1.66388e-09
-1.70057e-09
-1.74268e-09
-1.792e-09
-1.85062e-09
-1.91594e-09
-2.02321e-09
-1.44408e-11
-4.04776e-11
-5.984e-11
-8.26343e-11
-1.05231e-10
-1.27555e-10
-1.49769e-10
-1.71878e-10
-1.9392e-10
-2.15957e-10
-2.3799e-10
-2.5999e-10
-2.81983e-10
-3.03995e-10
-3.25996e-10
-3.48036e-10
-3.70025e-10
-3.92036e-10
-4.14086e-10
-4.36075e-10
-4.58097e-10
-4.80145e-10
-5.02134e-10
-5.24137e-10
-5.46179e-10
-5.68199e-10
-5.90212e-10
-6.12221e-10
-6.34238e-10
-6.56256e-10
-6.78282e-10
-7.00299e-10
-7.2232e-10
-7.44334e-10
-7.66354e-10
-7.88365e-10
-8.10386e-10
-8.32397e-10
-8.54428e-10
-8.76443e-10
-8.98456e-10
-9.20482e-10
-9.42497e-10
-9.64523e-10
-9.86523e-10
-1.00856e-09
-1.0306e-09
-1.0526e-09
-1.07463e-09
-1.09667e-09
-1.11868e-09
-1.14072e-09
-1.16275e-09
-1.18482e-09
-1.20684e-09
-1.22893e-09
-1.25098e-09
-1.27307e-09
-1.29517e-09
-1.31733e-09
-1.33952e-09
-1.36177e-09
-1.38412e-09
-1.40659e-09
-1.42917e-09
-1.45202e-09
-1.47519e-09
-1.49873e-09
-1.52291e-09
-1.5479e-09
-1.57402e-09
-1.60171e-09
-1.63158e-09
-1.66444e-09
-1.7013e-09
-1.74363e-09
-1.7932e-09
-1.85219e-09
-1.91893e-09
-2.01109e-09
-3.05234e-11
-4.06194e-11
-6.00587e-11
-8.27278e-11
-1.05272e-10
-1.27563e-10
-1.49741e-10
-1.7186e-10
-1.93933e-10
-2.15953e-10
-2.37953e-10
-2.59979e-10
-2.8198e-10
-3.03984e-10
-3.25987e-10
-3.4798e-10
-3.70008e-10
-3.92029e-10
-4.14025e-10
-4.36076e-10
-4.58103e-10
-4.80072e-10
-5.02108e-10
-5.24154e-10
-5.46156e-10
-5.68172e-10
-5.90197e-10
-6.12202e-10
-6.34225e-10
-6.5625e-10
-6.78253e-10
-7.00282e-10
-7.22312e-10
-7.44329e-10
-7.66343e-10
-7.8835e-10
-8.10367e-10
-8.32386e-10
-8.54425e-10
-8.76419e-10
-8.98454e-10
-9.20477e-10
-9.42477e-10
-9.64499e-10
-9.8653e-10
-1.00854e-09
-1.03057e-09
-1.05261e-09
-1.07461e-09
-1.09661e-09
-1.11867e-09
-1.1407e-09
-1.16275e-09
-1.18477e-09
-1.20682e-09
-1.22884e-09
-1.25096e-09
-1.27304e-09
-1.29514e-09
-1.3173e-09
-1.3395e-09
-1.36175e-09
-1.38409e-09
-1.40651e-09
-1.42915e-09
-1.452e-09
-1.4751e-09
-1.49873e-09
-1.52288e-09
-1.54787e-09
-1.57404e-09
-1.60181e-09
-1.63171e-09
-1.6647e-09
-1.70173e-09
-1.74425e-09
-1.79406e-09
-1.8532e-09
-1.92061e-09
-1.99674e-09
1.29473e-10
-1.89362e-11
-3.79442e-11
-6.00874e-11
-8.27737e-11
-1.05305e-10
-1.27567e-10
-1.49841e-10
-1.71878e-10
-1.93894e-10
-2.15951e-10
-2.38018e-10
-2.59971e-10
-2.82026e-10
-3.03985e-10
-3.25993e-10
-3.47996e-10
-3.70021e-10
-3.9202e-10
-4.14107e-10
-4.36088e-10
-4.5808e-10
-4.80154e-10
-5.0212e-10
-5.24098e-10
-5.46157e-10
-5.68179e-10
-5.90216e-10
-6.12228e-10
-6.34228e-10
-6.56276e-10
-6.78301e-10
-7.00285e-10
-7.22279e-10
-7.44317e-10
-7.6638e-10
-7.88346e-10
-8.10385e-10
-8.32387e-10
-8.54396e-10
-8.76421e-10
-8.98454e-10
-9.20468e-10
-9.42477e-10
-9.6455e-10
-9.8649e-10
-1.00857e-09
-1.03059e-09
-1.05254e-09
-1.07464e-09
-1.0967e-09
-1.11867e-09
-1.14069e-09
-1.16269e-09
-1.18479e-09
-1.20682e-09
-1.22896e-09
-1.25096e-09
-1.27306e-09
-1.29517e-09
-1.31727e-09
-1.33948e-09
-1.36173e-09
-1.38404e-09
-1.40656e-09
-1.42913e-09
-1.45195e-09
-1.47517e-09
-1.49866e-09
-1.52288e-09
-1.54789e-09
-1.57409e-09
-1.60185e-09
-1.6319e-09
-1.66489e-09
-1.70204e-09
-1.7447e-09
-1.7947e-09
-1.85415e-09
-1.92486e-09
-2.00698e-09
-2.10758e-09
1.17224e-10
-2.91872e-11
-3.90901e-11
-6.01269e-11
-8.28112e-11
-1.05323e-10
-1.27584e-10
-1.4973e-10
-1.71903e-10
-1.93947e-10
-2.15947e-10
-2.37985e-10
-2.59969e-10
-2.8194e-10
-3.04013e-10
-3.25991e-10
-3.48057e-10
-3.69981e-10
-3.92059e-10
-4.14e-10
-4.36023e-10
-4.58059e-10
-4.80068e-10
-5.02117e-10
-5.24187e-10
-5.46161e-10
-5.68193e-10
-5.90188e-10
-6.12196e-10
-6.34226e-10
-6.56192e-10
-6.78265e-10
-7.00282e-10
-7.22305e-10
-7.44347e-10
-7.66325e-10
-7.88356e-10
-8.10365e-10
-8.32374e-10
-8.54399e-10
-8.76423e-10
-8.98447e-10
-9.20457e-10
-9.42473e-10
-9.64497e-10
-9.8653e-10
-1.00855e-09
-1.0305e-09
-1.05264e-09
-1.0746e-09
-1.09659e-09
-1.11868e-09
-1.14073e-09
-1.16276e-09
-1.18479e-09
-1.2068e-09
-1.22881e-09
-1.25094e-09
-1.27296e-09
-1.2951e-09
-1.31735e-09
-1.33945e-09
-1.36173e-09
-1.38407e-09
-1.40647e-09
-1.42906e-09
-1.45196e-09
-1.47501e-09
-1.49867e-09
-1.52284e-09
-1.54785e-09
-1.57403e-09
-1.60187e-09
-1.63183e-09
-1.66497e-09
-1.7022e-09
-1.74493e-09
-1.79506e-09
-1.8547e-09
-1.92459e-09
-1.99971e-09
-2.11889e-09
-2.30259e-09
1.12036e-10
-1.85986e-11
-3.72724e-11
-6.00416e-11
-8.28372e-11
-1.05289e-10
-1.27593e-10
-1.49868e-10
-1.71869e-10
-1.93922e-10
-2.15949e-10
-2.37977e-10
-2.60003e-10
-2.82011e-10
-3.03953e-10
-3.26027e-10
-3.47913e-10
-3.70057e-10
-3.91994e-10
-4.14071e-10
-4.36113e-10
-4.58111e-10
-4.80134e-10
-5.02118e-10
-5.24067e-10
-5.46176e-10
-5.68137e-10
-5.90185e-10
-6.12224e-10
-6.34209e-10
-6.56266e-10
-6.78275e-10
-7.00308e-10
-7.22305e-10
-7.44303e-10
-7.66334e-10
-7.8833e-10
-8.10358e-10
-8.3238e-10
-8.54398e-10
-8.76408e-10
-8.98448e-10
-9.20458e-10
-9.4248e-10
-9.64497e-10
-9.86514e-10
-1.00854e-09
-1.03059e-09
-1.05252e-09
-1.07463e-09
-1.09667e-09
-1.11868e-09
-1.14064e-09
-1.1627e-09
-1.18475e-09
-1.20682e-09
-1.22889e-09
-1.25094e-09
-1.27304e-09
-1.29516e-09
-1.3172e-09
-1.33949e-09
-1.36164e-09
-1.38398e-09
-1.40646e-09
-1.42907e-09
-1.45187e-09
-1.47504e-09
-1.49858e-09
-1.52278e-09
-1.54777e-09
-1.57393e-09
-1.60178e-09
-1.63183e-09
-1.66487e-09
-1.70213e-09
-1.74494e-09
-1.79513e-09
-1.85492e-09
-1.92669e-09
-2.00985e-09
-2.12533e-09
-2.29836e-09
1.07081e-10
-2.4773e-11
-3.80849e-11
-6.01e-11
-8.28172e-11
-1.05355e-10
-1.27593e-10
-1.49762e-10
-1.71904e-10
-1.93886e-10
-2.16024e-10
-2.37978e-10
-2.59908e-10
-2.8201e-10
-3.04018e-10
-3.2594e-10
-3.48038e-10
-3.69995e-10
-3.92084e-10
-4.1406e-10
-4.36018e-10
-4.58039e-10
-4.80053e-10
-5.02117e-10
-5.24156e-10
-5.46169e-10
-5.68195e-10
-5.90187e-10
-6.12212e-10
-6.34235e-10
-6.56224e-10
-6.78251e-10
-7.00211e-10
-7.22292e-10
-7.44318e-10
-7.66349e-10
-7.88333e-10
-8.10356e-10
-8.32376e-10
-8.5438e-10
-8.76411e-10
-8.98416e-10
-9.20455e-10
-9.42451e-10
-9.64495e-10
-9.86501e-10
-1.00854e-09
-1.03052e-09
-1.05265e-09
-1.07464e-09
-1.09662e-09
-1.11861e-09
-1.14069e-09
-1.16273e-09
-1.18478e-09
-1.20678e-09
-1.22885e-09
-1.25095e-09
-1.27297e-09
-1.29506e-09
-1.3173e-09
-1.33939e-09
-1.36169e-09
-1.38398e-09
-1.40642e-09
-1.42897e-09
-1.45185e-09
-1.47494e-09
-1.49852e-09
-1.52268e-09
-1.5477e-09
-1.57378e-09
-1.60161e-09
-1.63161e-09
-1.66473e-09
-1.70199e-09
-1.74471e-09
-1.7949e-09
-1.8547e-09
-1.92584e-09
-2.0045e-09
-2.12607e-09
-2.2961e-09
1.04878e-10
-2.47462e-11
-3.80772e-11
-6.00837e-11
-8.28197e-11
-1.05301e-10
-1.27617e-10
-1.49797e-10
-1.71894e-10
-1.93982e-10
-2.15902e-10
-2.37985e-10
-2.60041e-10
-2.81926e-10
-3.03979e-10
-3.26013e-10
-3.47907e-10
-3.7e-10
-3.92e-10
-4.14021e-10
-4.3611e-10
-4.58116e-10
-4.80146e-10
-5.02106e-10
-5.24112e-10
-5.46105e-10
-5.68144e-10
-5.90194e-10
-6.1219e-10
-6.34193e-10
-6.56251e-10
-6.78257e-10
-7.00316e-10
-7.22308e-10
-7.44248e-10
-7.66338e-10
-7.88335e-10
-8.10358e-10
-8.32392e-10
-8.54396e-10
-8.76415e-10
-8.98441e-10
-9.20452e-10
-9.42483e-10
-9.64495e-10
-9.86494e-10
-1.00856e-09
-1.03058e-09
-1.05251e-09
-1.07457e-09
-1.09665e-09
-1.11867e-09
-1.14067e-09
-1.16269e-09
-1.18473e-09
-1.20682e-09
-1.22885e-09
-1.25087e-09
-1.27301e-09
-1.29511e-09
-1.31718e-09
-1.33941e-09
-1.3616e-09
-1.38396e-09
-1.4064e-09
-1.42896e-09
-1.45175e-09
-1.47486e-09
-1.49838e-09
-1.52258e-09
-1.54748e-09
-1.57367e-09
-1.60135e-09
-1.63138e-09
-1.66438e-09
-1.70153e-09
-1.74426e-09
-1.79437e-09
-1.85409e-09
-1.92504e-09
-2.00371e-09
-2.12544e-09
-2.29492e-09
1.05478e-10
-1.89513e-11
-3.73465e-11
-6.00671e-11
-8.28204e-11
-1.05339e-10
-1.27563e-10
-1.49826e-10
-1.71881e-10
-1.93855e-10
-2.16027e-10
-2.37986e-10
-2.59895e-10
-2.82056e-10
-3.03972e-10
-3.26007e-10
-3.47978e-10
-3.70039e-10
-3.92088e-10
-4.14079e-10
-4.36031e-10
-4.58065e-10
-4.80065e-10
-5.02114e-10
-5.24101e-10
-5.46162e-10
-5.68183e-10
-5.90172e-10
-6.12245e-10
-6.34251e-10
-6.56236e-10
-6.78249e-10
-7.00241e-10
-7.22243e-10
-7.44397e-10
-7.66325e-10
-7.88343e-10
-8.10357e-10
-8.32391e-10
-8.54368e-10
-8.76423e-10
-8.98433e-10
-9.20452e-10
-9.42479e-10
-9.64497e-10
-9.86521e-10
-1.00852e-09
-1.03055e-09
-1.05261e-09
-1.07466e-09
-1.09662e-09
-1.11864e-09
-1.14066e-09
-1.16272e-09
-1.18476e-09
-1.20678e-09
-1.22884e-09
-1.25091e-09
-1.27297e-09
-1.29507e-09
-1.31726e-09
-1.33938e-09
-1.36163e-09
-1.38389e-09
-1.40629e-09
-1.42889e-09
-1.4517e-09
-1.47479e-09
-1.49834e-09
-1.52239e-09
-1.54735e-09
-1.57334e-09
-1.6011e-09
-1.631e-09
-1.66389e-09
-1.70102e-09
-1.74358e-09
-1.79353e-09
-1.85307e-09
-1.9246e-09
-2.00803e-09
-2.12363e-09
-2.2947e-09
1.09185e-10
-2.89849e-11
-3.90766e-11
-6.01417e-11
-8.28067e-11
-1.05283e-10
-1.27636e-10
-1.49713e-10
-1.71896e-10
-1.9395e-10
-2.159e-10
-2.37996e-10
-2.60047e-10
-2.81873e-10
-3.03998e-10
-3.25971e-10
-3.47984e-10
-3.69947e-10
-3.91995e-10
-4.14017e-10
-4.36093e-10
-4.5807e-10
-4.80132e-10
-5.02109e-10
-5.24132e-10
-5.46152e-10
-5.68131e-10
-5.90193e-10
-6.12158e-10
-6.34196e-10
-6.56246e-10
-6.78241e-10
-7.0027e-10
-7.22343e-10
-7.44234e-10
-7.66314e-10
-7.8837e-10
-8.10356e-10
-8.324e-10
-8.54395e-10
-8.76424e-10
-8.98434e-10
-9.20458e-10
-9.42481e-10
-9.64503e-10
-9.86519e-10
-1.00854e-09
-1.03056e-09
-1.05256e-09
-1.07455e-09
-1.09665e-09
-1.11864e-09
-1.14061e-09
-1.1627e-09
-1.18472e-09
-1.2068e-09
-1.22882e-09
-1.25088e-09
-1.27297e-09
-1.29505e-09
-1.31714e-09
-1.33933e-09
-1.36155e-09
-1.38389e-09
-1.4063e-09
-1.42883e-09
-1.4516e-09
-1.47464e-09
-1.49817e-09
-1.52222e-09
-1.54714e-09
-1.57321e-09
-1.60067e-09
-1.63056e-09
-1.66345e-09
-1.70022e-09
-1.74267e-09
-1.79242e-09
-1.85164e-09
-1.92139e-09
-1.99566e-09
-2.11873e-09
-2.29608e-09
1.21899e-10
-1.91248e-11
-3.80169e-11
-6.00762e-11
-8.2776e-11
-1.05305e-10
-1.27584e-10
-1.49763e-10
-1.7189e-10
-1.93908e-10
-2.16001e-10
-2.37966e-10
-2.59915e-10
-2.82056e-10
-3.03971e-10
-3.26018e-10
-3.47973e-10
-3.70058e-10
-3.92087e-10
-4.14088e-10
-4.36049e-10
-4.58086e-10
-4.80083e-10
-5.02111e-10
-5.24133e-10
-5.46138e-10
-5.68216e-10
-5.9018e-10
-6.12241e-10
-6.34233e-10
-6.5624e-10
-6.78259e-10
-7.00323e-10
-7.22226e-10
-7.44372e-10
-7.66371e-10
-7.88319e-10
-8.10374e-10
-8.32408e-10
-8.54394e-10
-8.7644e-10
-8.98435e-10
-9.20491e-10
-9.4248e-10
-9.64536e-10
-9.86511e-10
-1.00855e-09
-1.03058e-09
-1.05256e-09
-1.07463e-09
-1.09661e-09
-1.11867e-09
-1.14074e-09
-1.1627e-09
-1.18473e-09
-1.20677e-09
-1.22886e-09
-1.25088e-09
-1.27296e-09
-1.29506e-09
-1.31721e-09
-1.33933e-09
-1.36157e-09
-1.38382e-09
-1.40626e-09
-1.42876e-09
-1.45152e-09
-1.47461e-09
-1.49801e-09
-1.52212e-09
-1.54688e-09
-1.57284e-09
-1.60043e-09
-1.63004e-09
-1.66273e-09
-1.6994e-09
-1.74157e-09
-1.79102e-09
-1.8499e-09
-1.92004e-09
-2.00194e-09
-2.10792e-09
-2.30026e-09
1.43107e-10
-3.06028e-11
-4.05939e-11
-6.00734e-11
-8.27171e-11
-1.05252e-10
-1.27568e-10
-1.49745e-10
-1.71859e-10
-1.93913e-10
-2.15922e-10
-2.3798e-10
-2.59986e-10
-2.819e-10
-3.03977e-10
-3.25971e-10
-3.47978e-10
-3.69987e-10
-3.91991e-10
-4.14015e-10
-4.36059e-10
-4.58071e-10
-4.80092e-10
-5.02114e-10
-5.24125e-10
-5.4616e-10
-5.68135e-10
-5.90179e-10
-6.12197e-10
-6.34227e-10
-6.5623e-10
-6.78242e-10
-7.00245e-10
-7.22325e-10
-7.44279e-10
-7.663e-10
-7.88373e-10
-8.1037e-10
-8.32386e-10
-8.54414e-10
-8.76433e-10
-8.98436e-10
-9.20474e-10
-9.42482e-10
-9.64496e-10
-9.86526e-10
-1.00854e-09
-1.03053e-09
-1.05257e-09
-1.07458e-09
-1.09662e-09
-1.11863e-09
-1.14062e-09
-1.1627e-09
-1.18473e-09
-1.20677e-09
-1.22878e-09
-1.25087e-09
-1.27294e-09
-1.29502e-09
-1.31713e-09
-1.33929e-09
-1.36149e-09
-1.38379e-09
-1.40616e-09
-1.42869e-09
-1.45142e-09
-1.47443e-09
-1.49786e-09
-1.5218e-09
-1.54663e-09
-1.57251e-09
-1.5999e-09
-1.62943e-09
-1.6619e-09
-1.69838e-09
-1.74026e-09
-1.78937e-09
-1.84779e-09
-1.9145e-09
-1.99001e-09
-2.09466e-09
-1.44447e-11
-4.04714e-11
-5.98356e-11
-8.26208e-11
-1.0523e-10
-1.27558e-10
-1.49742e-10
-1.71858e-10
-1.93918e-10
-2.15955e-10
-2.37964e-10
-2.59957e-10
-2.82017e-10
-3.03971e-10
-3.25995e-10
-3.48002e-10
-3.70014e-10
-3.92047e-10
-4.14078e-10
-4.36073e-10
-4.58089e-10
-4.80108e-10
-5.0211e-10
-5.24149e-10
-5.46146e-10
-5.68203e-10
-5.90193e-10
-6.12204e-10
-6.34234e-10
-6.56261e-10
-6.78255e-10
-7.00295e-10
-7.22274e-10
-7.44334e-10
-7.6636e-10
-7.88346e-10
-8.10378e-10
-8.32413e-10
-8.54414e-10
-8.7644e-10
-8.98467e-10
-9.20487e-10
-9.42492e-10
-9.64528e-10
-9.86525e-10
-1.00855e-09
-1.03058e-09
-1.05258e-09
-1.07461e-09
-1.09662e-09
-1.11866e-09
-1.14071e-09
-1.1627e-09
-1.18473e-09
-1.20677e-09
-1.22883e-09
-1.25088e-09
-1.27293e-09
-1.29502e-09
-1.31714e-09
-1.33929e-09
-1.36147e-09
-1.38375e-09
-1.40614e-09
-1.42864e-09
-1.45133e-09
-1.47434e-09
-1.49769e-09
-1.52166e-09
-1.54635e-09
-1.57213e-09
-1.59942e-09
-1.62885e-09
-1.66111e-09
-1.69728e-09
-1.73882e-09
-1.78756e-09
-1.84568e-09
-1.91158e-09
-2.00289e-09
-1.61973e-14
-3.99572e-11
-5.94734e-11
-8.24393e-11
-1.05119e-10
-1.27484e-10
-1.49697e-10
-1.71824e-10
-1.93889e-10
-2.15925e-10
-2.37957e-10
-2.59966e-10
-2.81921e-10
-3.03959e-10
-3.25993e-10
-3.47962e-10
-3.70001e-10
-3.92012e-10
-4.14025e-10
-4.36048e-10
-4.58074e-10
-4.8008e-10
-5.02128e-10
-5.24123e-10
-5.46144e-10
-5.68154e-10
-5.90173e-10
-6.12207e-10
-6.3421e-10
-6.56199e-10
-6.78258e-10
-7.00257e-10
-7.2228e-10
-7.44317e-10
-7.66319e-10
-7.88342e-10
-8.1038e-10
-8.32373e-10
-8.54413e-10
-8.76427e-10
-8.98434e-10
-9.20474e-10
-9.42466e-10
-9.64494e-10
-9.86518e-10
-1.00854e-09
-1.03054e-09
-1.05257e-09
-1.0746e-09
-1.09662e-09
-1.11863e-09
-1.14063e-09
-1.1627e-09
-1.18471e-09
-1.20676e-09
-1.22878e-09
-1.25083e-09
-1.27291e-09
-1.29499e-09
-1.31712e-09
-1.33923e-09
-1.36143e-09
-1.38369e-09
-1.40606e-09
-1.42853e-09
-1.4512e-09
-1.47417e-09
-1.49754e-09
-1.52137e-09
-1.54599e-09
-1.57162e-09
-1.59883e-09
-1.62797e-09
-1.6599e-09
-1.69585e-09
-1.73709e-09
-1.78543e-09
-1.84304e-09
-1.90734e-09
-2.01379e-09
-1.51281e-11
-3.21768e-11
-5.74091e-11
-8.16301e-11
-1.04704e-10
-1.27269e-10
-1.49574e-10
-1.71718e-10
-1.93834e-10
-2.15894e-10
-2.37925e-10
-2.59951e-10
-2.81963e-10
-3.03983e-10
-3.25974e-10
-3.47992e-10
-3.70017e-10
-3.92035e-10
-4.14053e-10
-4.36065e-10
-4.58099e-10
-4.80107e-10
-5.02095e-10
-5.24144e-10
-5.46156e-10
-5.68187e-10
-5.90203e-10
-6.12217e-10
-6.34223e-10
-6.56262e-10
-6.78266e-10
-7.00283e-10
-7.22288e-10
-7.44323e-10
-7.66345e-10
-7.88356e-10
-8.10373e-10
-8.32379e-10
-8.54406e-10
-8.76441e-10
-8.98442e-10
-9.20453e-10
-9.42492e-10
-9.64488e-10
-9.86541e-10
-1.00854e-09
-1.03058e-09
-1.0526e-09
-1.07463e-09
-1.09666e-09
-1.11869e-09
-1.14072e-09
-1.16275e-09
-1.18479e-09
-1.20686e-09
-1.22892e-09
-1.25101e-09
-1.27306e-09
-1.29521e-09
-1.31735e-09
-1.33957e-09
-1.36181e-09
-1.38413e-09
-1.40657e-09
-1.42917e-09
-1.45195e-09
-1.47501e-09
-1.49847e-09
-1.52246e-09
-1.54716e-09
-1.57289e-09
-1.59994e-09
-1.62898e-09
-1.66064e-09
-1.69597e-09
-1.7363e-09
-1.78365e-09
-1.84084e-09
-1.91037e-09
-1.98887e-09
1.45795e-10
-2.40366e-11
-3.36839e-11
-5.80113e-11
-8.18883e-11
-1.04858e-10
-1.27359e-10
-1.49635e-10
-1.71765e-10
-1.9386e-10
-2.15926e-10
-2.37936e-10
-2.59954e-10
-2.81983e-10
-3.03968e-10
-3.26004e-10
-3.48018e-10
-3.70023e-10
-3.92035e-10
-4.14066e-10
-4.36084e-10
-4.58082e-10
-4.80107e-10
-5.02141e-10
-5.24161e-10
-5.46173e-10
-5.68185e-10
-5.90205e-10
-6.12226e-10
-6.34284e-10
-6.56262e-10
-6.78274e-10
-7.003e-10
-7.22317e-10
-7.44338e-10
-7.66337e-10
-7.88364e-10
-8.10398e-10
-8.32399e-10
-8.54413e-10
-8.76447e-10
-8.98458e-10
-9.20473e-10
-9.4249e-10
-9.64513e-10
-9.86549e-10
-1.00858e-09
-1.03058e-09
-1.05261e-09
-1.07463e-09
-1.09668e-09
-1.11869e-09
-1.14072e-09
-1.16275e-09
-1.18482e-09
-1.20686e-09
-1.22893e-09
-1.251e-09
-1.27312e-09
-1.29523e-09
-1.31736e-09
-1.33956e-09
-1.36181e-09
-1.38415e-09
-1.40661e-09
-1.42919e-09
-1.45201e-09
-1.4751e-09
-1.49858e-09
-1.52261e-09
-1.5474e-09
-1.5732e-09
-1.60043e-09
-1.62973e-09
-1.66161e-09
-1.69726e-09
-1.738e-09
-1.7858e-09
-1.84338e-09
-1.91324e-09
-1.98462e-09
-2.06298e-09
1.31395e-10
-1.01232e-11
-3.43444e-11
-5.84425e-11
-8.20676e-11
-1.04935e-10
-1.27399e-10
-1.49629e-10
-1.71772e-10
-1.93863e-10
-2.15897e-10
-2.37975e-10
-2.59961e-10
-2.81935e-10
-3.04009e-10
-3.25986e-10
-3.47958e-10
-3.70019e-10
-3.92043e-10
-4.14054e-10
-4.36076e-10
-4.58102e-10
-4.801e-10
-5.0211e-10
-5.24148e-10
-5.46156e-10
-5.68188e-10
-5.90199e-10
-6.12212e-10
-6.3419e-10
-6.56264e-10
-6.78275e-10
-7.00243e-10
-7.22309e-10
-7.44306e-10
-7.66373e-10
-7.88372e-10
-8.10327e-10
-8.32394e-10
-8.54416e-10
-8.7643e-10
-8.98432e-10
-9.20475e-10
-9.42501e-10
-9.64509e-10
-9.86521e-10
-1.00855e-09
-1.03058e-09
-1.05261e-09
-1.07465e-09
-1.09663e-09
-1.11869e-09
-1.14072e-09
-1.16276e-09
-1.1848e-09
-1.20683e-09
-1.22893e-09
-1.25099e-09
-1.27304e-09
-1.29519e-09
-1.31733e-09
-1.33957e-09
-1.36181e-09
-1.38414e-09
-1.40656e-09
-1.42921e-09
-1.45198e-09
-1.47512e-09
-1.49862e-09
-1.52266e-09
-1.54751e-09
-1.57342e-09
-1.60081e-09
-1.63021e-09
-1.66239e-09
-1.69838e-09
-1.73956e-09
-1.78786e-09
-1.84587e-09
-1.91621e-09
-2.00257e-09
-2.06755e-09
-2.27459e-09
1.50895e-10
-1.36479e-11
-3.52952e-11
-5.88726e-11
-8.22446e-11
-1.05011e-10
-1.27448e-10
-1.49681e-10
-1.71792e-10
-1.93876e-10
-2.15917e-10
-2.37951e-10
-2.59956e-10
-2.81952e-10
-3.03963e-10
-3.26014e-10
-3.48031e-10
-3.70014e-10
-3.92048e-10
-4.1407e-10
-4.36085e-10
-4.58038e-10
-4.80093e-10
-5.02171e-10
-5.24164e-10
-5.46166e-10
-5.68183e-10
-5.90182e-10
-6.12236e-10
-6.34292e-10
-6.56232e-10
-6.78278e-10
-7.00297e-10
-7.22322e-10
-7.44326e-10
-7.6631e-10
-7.88327e-10
-8.10419e-10
-8.3241e-10
-8.54368e-10
-8.7644e-10
-8.98456e-10
-9.20454e-10
-9.425e-10
-9.64472e-10
-9.86555e-10
-1.00856e-09
-1.03059e-09
-1.0526e-09
-1.0746e-09
-1.09669e-09
-1.11869e-09
-1.14073e-09
-1.16273e-09
-1.1848e-09
-1.20683e-09
-1.22891e-09
-1.25099e-09
-1.27312e-09
-1.29523e-09
-1.31736e-09
-1.3395e-09
-1.36178e-09
-1.38415e-09
-1.40656e-09
-1.42923e-09
-1.45202e-09
-1.47511e-09
-1.49867e-09
-1.52274e-09
-1.54769e-09
-1.5736e-09
-1.60106e-09
-1.6307e-09
-1.6631e-09
-1.69937e-09
-1.74097e-09
-1.78971e-09
-1.84808e-09
-1.91852e-09
-2.00213e-09
-2.02191e-09
-2.28283e-09
1.13034e-10
-9.37425e-12
-3.58136e-11
-5.92511e-11
-8.24294e-11
-1.05105e-10
-1.27499e-10
-1.49735e-10
-1.71815e-10
-1.93913e-10
-2.15948e-10
-2.37986e-10
-2.59959e-10
-2.81999e-10
-3.04012e-10
-3.25998e-10
-3.4795e-10
-3.70021e-10
-3.92056e-10
-4.14066e-10
-4.36071e-10
-4.58132e-10
-4.80108e-10
-5.0211e-10
-5.24171e-10
-5.46163e-10
-5.6819e-10
-5.90193e-10
-6.12236e-10
-6.34225e-10
-6.56275e-10
-6.78269e-10
-7.00303e-10
-7.22297e-10
-7.44314e-10
-7.66362e-10
-7.88397e-10
-8.10353e-10
-8.32407e-10
-8.54435e-10
-8.76441e-10
-8.98424e-10
-9.20489e-10
-9.425e-10
-9.64512e-10
-9.86554e-10
-1.00856e-09
-1.03056e-09
-1.05261e-09
-1.07464e-09
-1.09665e-09
-1.11872e-09
-1.14069e-09
-1.16276e-09
-1.18477e-09
-1.20688e-09
-1.22891e-09
-1.25098e-09
-1.27306e-09
-1.2952e-09
-1.31731e-09
-1.33955e-09
-1.3618e-09
-1.3841e-09
-1.40662e-09
-1.42917e-09
-1.45197e-09
-1.47517e-09
-1.49866e-09
-1.52281e-09
-1.54772e-09
-1.57379e-09
-1.60135e-09
-1.63105e-09
-1.66365e-09
-1.70023e-09
-1.74215e-09
-1.79133e-09
-1.85004e-09
-1.92103e-09
-2.00933e-09
-2.06286e-09
-2.26921e-09
9.02184e-11
-1.35426e-11
-3.74171e-11
-5.97695e-11
-8.26631e-11
-1.05242e-10
-1.27632e-10
-1.49777e-10
-1.7191e-10
-1.93943e-10
-2.15975e-10
-2.38051e-10
-2.60021e-10
-2.81947e-10
-3.04036e-10
-3.26e-10
-3.48076e-10
-3.7005e-10
-3.92067e-10
-4.14071e-10
-4.36122e-10
-4.58026e-10
-4.80155e-10
-5.02204e-10
-5.24136e-10
-5.46168e-10
-5.68212e-10
-5.90192e-10
-6.12262e-10
-6.34265e-10
-6.56284e-10
-6.78273e-10
-7.00326e-10
-7.22348e-10
-7.44331e-10
-7.66296e-10
-7.88402e-10
-8.1041e-10
-8.32442e-10
-8.54408e-10
-8.76494e-10
-8.98489e-10
-9.20466e-10
-9.4254e-10
-9.64524e-10
-9.86574e-10
-1.00858e-09
-1.03061e-09
-1.0526e-09
-1.07466e-09
-1.09664e-09
-1.11869e-09
-1.14074e-09
-1.16276e-09
-1.18485e-09
-1.20682e-09
-1.22896e-09
-1.251e-09
-1.27308e-09
-1.2952e-09
-1.31735e-09
-1.33952e-09
-1.36179e-09
-1.38411e-09
-1.40654e-09
-1.42922e-09
-1.45202e-09
-1.47519e-09
-1.49871e-09
-1.52286e-09
-1.54785e-09
-1.57389e-09
-1.60159e-09
-1.63141e-09
-1.66419e-09
-1.70095e-09
-1.74319e-09
-1.79263e-09
-1.85153e-09
-1.92186e-09
-2.00941e-09
-2.10851e-09
-2.26388e-09
8.02141e-11
-1.69986e-11
-3.83332e-11
-6.00655e-11
-8.2823e-11
-1.0532e-10
-1.27667e-10
-1.49798e-10
-1.71906e-10
-1.93963e-10
-2.15996e-10
-2.37981e-10
-2.59999e-10
-2.82022e-10
-3.04003e-10
-3.26026e-10
-3.4796e-10
-3.70035e-10
-3.92068e-10
-4.14038e-10
-4.36037e-10
-4.58124e-10
-4.80064e-10
-5.02113e-10
-5.24215e-10
-5.46148e-10
-5.68188e-10
-5.90216e-10
-6.12194e-10
-6.3426e-10
-6.56271e-10
-6.7827e-10
-7.00286e-10
-7.22296e-10
-7.44324e-10
-7.66358e-10
-7.88383e-10
-8.10397e-10
-8.32434e-10
-8.54407e-10
-8.76456e-10
-8.98477e-10
-9.20484e-10
-9.42527e-10
-9.64457e-10
-9.86554e-10
-1.00855e-09
-1.0306e-09
-1.05266e-09
-1.07461e-09
-1.09665e-09
-1.11871e-09
-1.14073e-09
-1.16277e-09
-1.18472e-09
-1.20687e-09
-1.22883e-09
-1.25094e-09
-1.27306e-09
-1.29518e-09
-1.31733e-09
-1.33951e-09
-1.36177e-09
-1.38409e-09
-1.40652e-09
-1.42913e-09
-1.45202e-09
-1.47507e-09
-1.4987e-09
-1.52286e-09
-1.54784e-09
-1.57398e-09
-1.60172e-09
-1.63162e-09
-1.66451e-09
-1.70145e-09
-1.74387e-09
-1.79358e-09
-1.85261e-09
-1.9226e-09
-2.00809e-09
-2.12319e-09
-2.26081e-09
5.26083e-11
-1.54643e-11
-3.76093e-11
-6.01968e-11
-8.28881e-11
-1.05389e-10
-1.27691e-10
-1.4983e-10
-1.71923e-10
-1.93981e-10
-2.16007e-10
-2.38013e-10
-2.60053e-10
-2.82021e-10
-3.0398e-10
-3.26045e-10
-3.48027e-10
-3.70085e-10
-3.92063e-10
-4.1405e-10
-4.36082e-10
-4.58109e-10
-4.80174e-10
-5.02168e-10
-5.24079e-10
-5.4618e-10
-5.68203e-10
-5.90192e-10
-6.12285e-10
-6.34249e-10
-6.56312e-10
-6.78248e-10
-7.00335e-10
-7.22319e-10
-7.44314e-10
-7.66348e-10
-7.88396e-10
-8.10378e-10
-8.32421e-10
-8.54434e-10
-8.76451e-10
-8.98458e-10
-9.20467e-10
-9.42524e-10
-9.64505e-10
-9.86566e-10
-1.00857e-09
-1.03061e-09
-1.05257e-09
-1.07464e-09
-1.09668e-09
-1.1187e-09
-1.14069e-09
-1.16275e-09
-1.18478e-09
-1.20686e-09
-1.22896e-09
-1.25098e-09
-1.27309e-09
-1.29517e-09
-1.31727e-09
-1.3395e-09
-1.36177e-09
-1.38405e-09
-1.4065e-09
-1.4292e-09
-1.4519e-09
-1.47524e-09
-1.49865e-09
-1.52286e-09
-1.54781e-09
-1.57404e-09
-1.60179e-09
-1.63174e-09
-1.66471e-09
-1.70181e-09
-1.74434e-09
-1.79421e-09
-1.85353e-09
-1.92462e-09
-2.01085e-09
-2.15866e-09
-2.26077e-09
5.01345e-11
-1.90054e-11
-3.8614e-11
-6.03219e-11
-8.2958e-11
-1.05414e-10
-1.27721e-10
-1.49822e-10
-1.71936e-10
-1.93981e-10
-2.16012e-10
-2.3794e-10
-2.60034e-10
-2.82004e-10
-3.04099e-10
-3.2597e-10
-3.48098e-10
-3.69979e-10
-3.9203e-10
-4.14067e-10
-4.36082e-10
-4.58077e-10
-4.80076e-10
-5.02091e-10
-5.24217e-10
-5.46162e-10
-5.68159e-10
-5.90227e-10
-6.12194e-10
-6.34266e-10
-6.56231e-10
-6.78296e-10
-7.00295e-10
-7.22314e-10
-7.44347e-10
-7.66296e-10
-7.88385e-10
-8.10373e-10
-8.32413e-10
-8.54422e-10
-8.76446e-10
-8.98449e-10
-9.20477e-10
-9.42518e-10
-9.64496e-10
-9.86547e-10
-1.00853e-09
-1.03056e-09
-1.05266e-09
-1.0746e-09
-1.09665e-09
-1.11865e-09
-1.14077e-09
-1.16278e-09
-1.18479e-09
-1.20682e-09
-1.22881e-09
-1.25088e-09
-1.27304e-09
-1.29517e-09
-1.31735e-09
-1.33947e-09
-1.36173e-09
-1.38406e-09
-1.40647e-09
-1.42907e-09
-1.45197e-09
-1.475e-09
-1.49867e-09
-1.52275e-09
-1.54783e-09
-1.57397e-09
-1.60179e-09
-1.63178e-09
-1.66478e-09
-1.70194e-09
-1.74459e-09
-1.79456e-09
-1.85398e-09
-1.92441e-09
-2.00817e-09
-2.15708e-09
-2.26064e-09
4.91226e-11
-1.56836e-11
-3.76155e-11
-6.03153e-11
-8.301e-11
-1.05435e-10
-1.27706e-10
-1.49899e-10
-1.71916e-10
-1.93999e-10
-2.1595e-10
-2.38056e-10
-2.60042e-10
-2.82015e-10
-3.03927e-10
-3.26072e-10
-3.47991e-10
-3.7011e-10
-3.92032e-10
-4.14047e-10
-4.36052e-10
-4.58175e-10
-4.80126e-10
-5.02114e-10
-5.24113e-10
-5.46132e-10
-5.68243e-10
-5.90184e-10
-6.1226e-10
-6.34233e-10
-6.56281e-10
-6.78224e-10
-7.0034e-10
-7.22342e-10
-7.44309e-10
-7.663e-10
-7.88387e-10
-8.10371e-10
-8.32404e-10
-8.54411e-10
-8.76442e-10
-8.98444e-10
-9.20478e-10
-9.42501e-10
-9.64478e-10
-9.8654e-10
-1.00855e-09
-1.03063e-09
-1.05256e-09
-1.0746e-09
-1.09667e-09
-1.1187e-09
-1.14069e-09
-1.16274e-09
-1.18469e-09
-1.20685e-09
-1.22896e-09
-1.25095e-09
-1.27306e-09
-1.29514e-09
-1.31718e-09
-1.33948e-09
-1.3617e-09
-1.38403e-09
-1.40644e-09
-1.42914e-09
-1.4518e-09
-1.47513e-09
-1.49854e-09
-1.52277e-09
-1.54768e-09
-1.5739e-09
-1.6017e-09
-1.63173e-09
-1.66472e-09
-1.70192e-09
-1.74457e-09
-1.79462e-09
-1.85414e-09
-1.92559e-09
-2.01179e-09
-2.15759e-09
-2.26053e-09
4.81177e-11
-1.74085e-11
-3.81943e-11
-6.03711e-11
-8.29963e-11
-1.05459e-10
-1.27734e-10
-1.49794e-10
-1.71944e-10
-1.93983e-10
-2.16047e-10
-2.37972e-10
-2.60025e-10
-2.82012e-10
-3.04103e-10
-3.25944e-10
-3.48133e-10
-3.69953e-10
-3.92063e-10
-4.14084e-10
-4.36066e-10
-4.58026e-10
-4.801e-10
-5.0218e-10
-5.24172e-10
-5.46203e-10
-5.68117e-10
-5.90219e-10
-6.12234e-10
-6.34269e-10
-6.56252e-10
-6.78296e-10
-7.0025e-10
-7.22293e-10
-7.4435e-10
-7.66297e-10
-7.88389e-10
-8.10362e-10
-8.32393e-10
-8.5441e-10
-8.76439e-10
-8.98436e-10
-9.20473e-10
-9.42496e-10
-9.64496e-10
-9.86536e-10
-1.00854e-09
-1.03055e-09
-1.05266e-09
-1.07464e-09
-1.09658e-09
-1.11867e-09
-1.14077e-09
-1.16275e-09
-1.18484e-09
-1.20681e-09
-1.22876e-09
-1.2509e-09
-1.27302e-09
-1.29513e-09
-1.31733e-09
-1.33938e-09
-1.36168e-09
-1.38398e-09
-1.40641e-09
-1.42901e-09
-1.45191e-09
-1.47492e-09
-1.49853e-09
-1.5226e-09
-1.54762e-09
-1.57377e-09
-1.60162e-09
-1.63148e-09
-1.66455e-09
-1.70172e-09
-1.74437e-09
-1.79438e-09
-1.85388e-09
-1.92493e-09
-2.00982e-09
-2.1567e-09
-2.26091e-09
4.80715e-11
-1.74338e-11
-3.81974e-11
-6.0358e-11
-8.30051e-11
-1.05445e-10
-1.2773e-10
-1.49871e-10
-1.71935e-10
-1.93993e-10
-2.15954e-10
-2.38012e-10
-2.60097e-10
-2.81996e-10
-3.03927e-10
-3.26011e-10
-3.48026e-10
-3.7009e-10
-3.91965e-10
-4.14018e-10
-4.361e-10
-4.58193e-10
-4.80145e-10
-5.02078e-10
-5.24163e-10
-5.46107e-10
-5.68235e-10
-5.90208e-10
-6.12195e-10
-6.34224e-10
-6.56229e-10
-6.78274e-10
-7.00328e-10
-7.22276e-10
-7.44323e-10
-7.66344e-10
-7.88344e-10
-8.10375e-10
-8.32381e-10
-8.54424e-10
-8.76424e-10
-8.98464e-10
-9.20469e-10
-9.42493e-10
-9.64492e-10
-9.86543e-10
-1.00854e-09
-1.03057e-09
-1.05258e-09
-1.07455e-09
-1.09667e-09
-1.11869e-09
-1.14068e-09
-1.16273e-09
-1.18468e-09
-1.20681e-09
-1.22897e-09
-1.25093e-09
-1.27301e-09
-1.2951e-09
-1.31715e-09
-1.33944e-09
-1.36164e-09
-1.38397e-09
-1.40638e-09
-1.42902e-09
-1.45169e-09
-1.47492e-09
-1.49835e-09
-1.52255e-09
-1.54747e-09
-1.57357e-09
-1.60132e-09
-1.63127e-09
-1.66422e-09
-1.70131e-09
-1.74385e-09
-1.79385e-09
-1.85327e-09
-1.92419e-09
-2.0091e-09
-2.1559e-09
-2.2601e-09
4.90996e-11
-1.58839e-11
-3.76956e-11
-6.03284e-11
-8.29801e-11
-1.05449e-10
-1.27695e-10
-1.49863e-10
-1.719e-10
-1.93978e-10
-2.1602e-10
-2.38004e-10
-2.60022e-10
-2.82041e-10
-3.04028e-10
-3.25969e-10
-3.48128e-10
-3.70023e-10
-3.92019e-10
-4.14092e-10
-4.36042e-10
-4.58065e-10
-4.80057e-10
-5.02177e-10
-5.24178e-10
-5.46209e-10
-5.68153e-10
-5.90208e-10
-6.1219e-10
-6.3426e-10
-6.56319e-10
-6.78282e-10
-7.00272e-10
-7.2228e-10
-7.44312e-10
-7.66343e-10
-7.88408e-10
-8.10372e-10
-8.32374e-10
-8.54414e-10
-8.76432e-10
-8.98467e-10
-9.20472e-10
-9.42489e-10
-9.6449e-10
-9.86544e-10
-1.00854e-09
-1.03056e-09
-1.05263e-09
-1.07466e-09
-1.0966e-09
-1.11866e-09
-1.14077e-09
-1.16274e-09
-1.18482e-09
-1.2068e-09
-1.22873e-09
-1.25095e-09
-1.273e-09
-1.29511e-09
-1.31727e-09
-1.33937e-09
-1.36163e-09
-1.38387e-09
-1.40633e-09
-1.42886e-09
-1.45176e-09
-1.47477e-09
-1.49831e-09
-1.52236e-09
-1.5473e-09
-1.57337e-09
-1.60105e-09
-1.63085e-09
-1.66377e-09
-1.70072e-09
-1.74326e-09
-1.793e-09
-1.85226e-09
-1.92361e-09
-2.00971e-09
-2.15512e-09
-2.25861e-09
4.99745e-11
-1.89535e-11
-3.85755e-11
-6.03232e-11
-8.29413e-11
-1.0541e-10
-1.27705e-10
-1.49834e-10
-1.7192e-10
-1.93968e-10
-2.16019e-10
-2.37977e-10
-2.60044e-10
-2.81984e-10
-3.03976e-10
-3.25979e-10
-3.48019e-10
-3.70036e-10
-3.91993e-10
-4.14025e-10
-4.36092e-10
-4.58135e-10
-4.80147e-10
-5.02098e-10
-5.24109e-10
-5.4613e-10
-5.68207e-10
-5.90214e-10
-6.12246e-10
-6.34213e-10
-6.56139e-10
-6.78296e-10
-7.00277e-10
-7.22354e-10
-7.44306e-10
-7.66353e-10
-7.88357e-10
-8.10378e-10
-8.32369e-10
-8.54441e-10
-8.76428e-10
-8.98469e-10
-9.20477e-10