/*--------------------------------*- C++ -*----------------------------------*\
| =========                 |                                                 |
| \\      /  F ield         | OpenFOAM: The Open Source CFD Toolbox           |
|  \\    /   O peration     | Version:  v1906                                 |
|   \\  /    A nd           | Web:      www.OpenFOAM.com                      |
|    \\/     M anipulation  |                                                 |
\*---------------------------------------------------------------------------*/
FoamFile
{
    version     2.0;
    format      ascii;
    class       volScalarField;
    location    "4e-05";
    object      p;
}
// * * * * * * * * * * * * * * * * * * * * * * * * * * * * * * * * * * * * * //

dimensions      [0 2 -2 0 0 0 0];


internalField   nonuniform List<scalar> 
243374
(
8.22883e-05
0.00118621
0.000700794
0.00135752
0.00151579
0.00164033
0.00168268
0.00169981
0.00170726
0.0017126
0.00171985
0.00171672
0.00170996
0.00169978
0.00169079
0.001691
0.00167893
0.00167
0.0016557
0.00164965
0.00163378
0.00161909
0.00161671
0.00162006
0.00162022
0.00160847
0.00159691
0.00158799
0.00158131
0.00157482
0.00156905
0.00156347
0.00155846
0.00155469
0.00155266
0.00155207
0.00155227
0.00155275
0.00155357
0.00155446
0.00155567
0.00155713
0.00155916
0.00156256
0.00156819
0.00157606
0.00158588
0.00159704
0.0016095
0.00162445
0.00164171
0.00166417
0.00169294
0.00172648
0.00175357
0.00178282
0.00182311
0.00188385
0.00196415
0.00204683
0.00215753
0.00228413
0.00244362
0.00262669
0.00285978
0.00314548
0.00349132
0.00391602
0.00441263
0.00501723
0.00572523
0.0065606
0.00751877
0.00855798
0.00962752
0.0106385
0.0115607
0.0116096
0.0119088
0.00977342
0.0026946
0.00345734
0.00308906
0.00370863
0.00384345
0.00395074
0.003984
0.00399146
0.00399988
0.00400208
0.00400667
0.00400349
0.00399566
0.00398258
0.00397237
0.00397334
0.00395728
0.00394777
0.00393127
0.00392622
0.00390762
0.00388939
0.00388706
0.00389235
0.00389437
0.00388154
0.00386886
0.00385944
0.00385244
0.00384553
0.00383929
0.00383324
0.00382787
0.00382385
0.00382163
0.00382106
0.00382129
0.0038217
0.00382252
0.00382348
0.00382482
0.00382633
0.0038284
0.00383203
0.0038379
0.00384593
0.00385612
0.00386782
0.00388084
0.00389648
0.00391443
0.00393762
0.00396792
0.00400301
0.00402883
0.00405663
0.00409702
0.00416087
0.00424528
0.00432781
0.00444219
0.00457121
0.00473709
0.00492227
0.00515963
0.0054503
0.00580132
0.00623464
0.00673585
0.00734699
0.00805892
0.00890951
0.00988533
0.0109459
0.0120384
0.01307
0.0140633
0.0142559
0.0148127
0.0139241
-0.00121523
0.000510683
-0.000119833
0.000591059
0.000719433
0.000832283
0.000873947
0.000881832
0.000898541
0.000900914
0.000908069
0.000906972
0.000900918
0.000886808
0.000876473
0.000879518
0.000858957
0.00084975
0.000832391
0.000829641
0.000809591
0.000787723
0.000784451
0.000791713
0.00079611
0.000782909
0.000769978
0.000760783
0.000754039
0.000747038
0.000740483
0.000734374
0.000729144
0.000725106
0.000722749
0.000722043
0.00072226
0.000722673
0.00072349
0.000724264
0.000725398
0.000726882
0.000728888
0.00073238
0.000738154
0.00074625
0.00075669
0.000768719
0.000782167
0.000797675
0.000815119
0.000838226
0.000868986
0.00090452
0.000928637
0.000955114
0.000996064
0.00106358
0.00115095
0.00123108
0.00134707
0.00147713
0.00164847
0.00183287
0.00207188
0.00236529
0.0027181
0.00315302
0.00365409
0.00426422
0.00496931
0.00582701
0.00680477
0.00786509
0.00895635
0.0100074
0.0109895
0.011166
0.0122103
0.0104912
0.0011857
-0.000489237
0.00319461
0.00229741
0.00296608
0.00304157
0.00313058
0.00316036
0.00315341
0.00317079
0.00316816
0.0031713
0.00316726
0.00315995
0.00314123
0.00312921
0.00313231
0.00310436
0.00309306
0.00307508
0.00307414
0.0030534
0.00302778
0.00302122
0.00302792
0.00303331
0.00302048
0.00300837
0.00300044
0.00299488
0.00298873
0.00298276
0.00297698
0.00297183
0.002968
0.00296597
0.00296562
0.00296583
0.00296627
0.00296728
0.00296827
0.0029697
0.0029713
0.00297332
0.00297691
0.00298275
0.00299069
0.00300078
0.00301234
0.0030253
0.00304034
0.00305719
0.00307936
0.00310982
0.00314529
0.00316798
0.00319499
0.00323954
0.00331167
0.00339997
0.00347863
0.00359662
0.00373151
0.00391135
0.00409811
0.00434162
0.00464166
0.00500055
0.00544201
0.00595159
0.00656863
0.00727786
0.00815619
0.00915819
0.010247
0.0113724
0.0124889
0.0135378
0.0138754
0.0155543
0.0119817
0.02186
-0.00317607
-0.00223879
0.0015153
0.000496618
0.00128963
0.00140412
0.00149995
0.00154342
0.00154203
0.00157062
0.00157648
0.00158633
0.00158547
0.00158145
0.00156259
0.00155321
0.0015576
0.00152433
0.00151029
0.001495
0.00149523
0.00147768
0.0014522
0.00144199
0.00144761
0.00145386
0.00144284
0.00143234
0.00142626
0.00142248
0.0014177
0.00141258
0.00140747
0.00140327
0.00140016
0.00139817
0.00139781
0.00139787
0.00139823
0.00139933
0.00140004
0.0014012
0.00140289
0.00140501
0.00140841
0.00141375
0.00142123
0.00143086
0.00144192
0.00145419
0.00146755
0.0014824
0.00150291
0.00153208
0.0015658
0.00158689
0.0016152
0.0016639
0.00173837
0.00182299
0.00190042
0.00201606
0.00215655
0.00234153
0.00252854
0.0027717
0.00307389
0.00343322
0.00387307
0.00438174
0.00499469
0.00570716
0.00656912
0.00757629
0.00866318
0.00978908
0.0108918
0.0119022
0.0121753
0.0140716
0.0111588
0.0238387
0.0467169
-0.00352412
-0.00176936
0.00219184
0.00107203
0.00178137
0.00186375
0.00194348
0.001975
0.00195862
0.00198344
0.00198381
0.00199042
0.00198496
0.00197785
0.00195672
0.00194653
0.0019483
0.00191014
0.0018906
0.00187625
0.0018745
0.00185871
0.0018359
0.00182555
0.0018318
0.00183959
0.00182827
0.00181656
0.00180986
0.0018059
0.00180137
0.0017966
0.00179171
0.00178726
0.00178395
0.00178219
0.00178192
0.00178182
0.00178215
0.0017831
0.0017838
0.00178503
0.00178677
0.00178911
0.00179249
0.001798
0.00180574
0.00181522
0.00182616
0.00183834
0.00185167
0.00186714
0.00188853
0.00191902
0.00195317
0.00197214
0.00199951
0.0020489
0.00212249
0.00220441
0.00228437
0.00240017
0.00254886
0.00273894
0.00293039
0.00317645
0.0034837
0.00384901
0.00429474
0.00481312
0.00543565
0.00616826
0.00702768
0.00807199
0.00918534
0.0103439
0.0115005
0.0125865
0.0130377
0.0152803
0.0121867
0.0253832
0.0599006
-0.00349544
-0.0023281
0.00194245
0.000800243
0.00155397
0.00164988
0.0017319
0.0017635
0.00174028
0.00177214
0.00178158
0.00178777
0.00178416
0.00177834
0.00175723
0.00174773
0.00174837
0.00170989
0.00168742
0.00167312
0.00166968
0.00165542
0.00163663
0.00162935
0.00163751
0.00164679
0.00163396
0.00161964
0.00161104
0.00160602
0.0016009
0.00159558
0.00159019
0.00158561
0.00158212
0.00158005
0.00157959
0.0015792
0.00157944
0.00158046
0.00158112
0.00158236
0.0015843
0.00158699
0.00159059
0.00159628
0.00160439
0.00161423
0.00162568
0.00163838
0.00165213
0.00166861
0.00169213
0.00172542
0.00176119
0.00177842
0.00180387
0.00185092
0.00192153
0.00200189
0.00208434
0.00220029
0.00235285
0.00254414
0.00273801
0.00298515
0.00329456
0.00366178
0.0041081
0.0046315
0.00525615
0.00597764
0.006834
0.00790713
0.00902998
0.0102002
0.011364
0.012453
0.0128885
0.0152043
0.0120439
0.0264439
0.0667358
-0.00341465
-0.00232556
0.0019438
0.000801055
0.00155437
0.00165016
0.00173185
0.00176368
0.00174039
0.00177231
0.00178172
0.00178792
0.0017843
0.0017785
0.0017574
0.00174779
0.00174855
0.00170994
0.00168768
0.00167336
0.00166974
0.00165548
0.00163679
0.00162957
0.00163762
0.00164698
0.00163408
0.00161976
0.00161116
0.00160606
0.00160091
0.00159569
0.00159031
0.00158557
0.00158205
0.0015801
0.00157945
0.00157912
0.00157969
0.00158057
0.00158114
0.00158234
0.00158428
0.00158711
0.00159066
0.00159633
0.00160456
0.00161444
0.00162589
0.00163855
0.00165233
0.00166872
0.0016924
0.00172578
0.00176166
0.00177909
0.0018047
0.00185212
0.00192316
0.00200388
0.00208674
0.00220326
0.00235669
0.00254892
0.00274401
0.00299282
0.00330438
0.00367424
0.0041239
0.00465159
0.00528125
0.00600932
0.00687478
0.00795814
0.0090939
0.0102801
0.0114636
0.0125758
0.0130391
0.0153863
0.0122754
0.0268748
0.0687164
-0.00324807
-0.00176112
0.00219591
0.00107366
0.00178176
0.00186403
0.00194279
0.00197501
0.00195896
0.00198343
0.0019839
0.00199063
0.00198513
0.00197807
0.001957
0.00194672
0.00194893
0.00191042
0.0018911
0.00187647
0.00187431
0.00185834
0.00183595
0.0018261
0.00183201
0.00183987
0.00182854
0.00181669
0.00180994
0.00180595
0.00180142
0.00179669
0.00179159
0.00178717
0.00178392
0.00178214
0.00178155
0.00178142
0.00178226
0.00178329
0.00178388
0.00178508
0.00178683
0.00178944
0.00179288
0.00179831
0.00180625
0.00181587
0.00182708
0.00183921
0.00185239
0.00186764
0.0018895
0.00192038
0.00195479
0.00197424
0.0020021
0.00205253
0.0021274
0.00221044
0.0022916
0.00240902
0.00256014
0.00275287
0.00294784
0.00319879
0.00351232
0.00388525
0.00434057
0.00487159
0.00550828
0.0062603
0.00714595
0.00822054
0.00937098
0.0105755
0.0117876
0.0129375
0.0134598
0.0157848
0.0127802
0.0266146
0.0660121
-0.00305157
-0.0022252
0.00152153
0.000499672
0.00129045
0.00140454
0.00149853
0.00154342
0.00154246
0.00157052
0.00157634
0.00158636
0.00158523
0.00158113
0.0015623
0.00155277
0.00155769
0.00152403
0.00151043
0.0014951
0.0014948
0.00147695
0.00145198
0.00144231
0.00144761
0.0014541
0.00144286
0.00143205
0.00142594
0.00142207
0.00141735
0.00141253
0.00140727
0.00140279
0.00139957
0.00139788
0.0013975
0.00139773
0.00139884
0.00139966
0.00140019
0.00140139
0.00140294
0.0014054
0.00140878
0.00141421
0.00142231
0.00143207
0.0014433
0.00145551
0.00146899
0.00148392
0.00150501
0.00153463
0.00156889
0.00159082
0.00161984
0.00167033
0.00174688
0.00183338
0.00191287
0.00203154
0.00217621
0.00236573
0.00255884
0.00281041
0.00312332
0.00349585
0.00395267
0.00448293
0.00512084
0.00586618
0.00677407
0.00783438
0.00898711
0.0101944
0.0113973
0.0125272
0.0129385
0.0149882
0.0122438
0.0256478
0.0580078
-0.00251632
-0.000467153
0.00320417
0.00230181
0.00296727
0.00304304
0.00313073
0.00316123
0.00315487
0.00317168
0.00316882
0.00317223
0.00316803
0.00316076
0.00314225
0.00313008
0.00313345
0.00310507
0.00309413
0.00307605
0.00307445
0.00305334
0.00302835
0.00302237
0.00302873
0.00303448
0.00302165
0.00300949
0.00300145
0.00299563
0.0029896
0.00298387
0.0029778
0.00297263
0.00296893
0.00296669
0.00296599
0.00296628
0.00296736
0.00296814
0.00296851
0.00296963
0.00297112
0.00297329
0.00297681
0.00298255
0.00299091
0.0030012
0.00301329
0.00302649
0.00304134
0.00305824
0.00308117
0.00311212
0.00314832
0.0031725
0.00320091
0.00324774
0.00332267
0.00341341
0.00349472
0.00361688
0.00375737
0.00394342
0.00413849
0.00439336
0.00470799
0.00508481
0.00554895
0.00608801
0.00673849
0.00749175
0.00843178
0.00950548
0.0106832
0.0119177
0.0131669
0.0143732
0.0148898
0.0167681
0.0134387
0.0240707
0.0439686
-0.00111874
-0.0011818
0.000521995
-0.000115323
0.000590589
0.000719614
0.000831495
0.000873622
0.000881801
0.000897878
0.000900214
0.000907647
0.00090618
0.000900063
0.000886056
0.000875702
0.000879062
0.000858385
0.000849262
0.00083183
0.00082872
0.000808225
0.000786971
0.000784516
0.000791588
0.000796145
0.000782668
0.000769302
0.000760043
0.000753297
0.000746537
0.000740222
0.0007337
0.000728357
0.000724413
0.000722054
0.000721477
0.000721826
0.000722945
0.000723823
0.000724562
0.00072592
0.000727617
0.000729966
0.000733527
0.000739493
0.000748242
0.000758831
0.000771187
0.000784866
0.000800674
0.000818662
0.000842621
0.000874266
0.00091083
0.000936325
0.000964402
0.00100813
0.00107907
0.00116996
0.00125418
0.00137559
0.00151281
0.00169266
0.00188823
0.00214209
0.00245426
0.00283044
0.00329491
0.00383516
0.00448931
0.00525178
0.00619012
0.00726316
0.00844172
0.00967714
0.0109035
0.0120991
0.0125202
0.01383
0.0124565
0.0225885
0.0027479
0.00347159
0.00309508
0.00370802
0.00384489
0.00395148
0.00398458
0.00399205
0.00400009
0.00400219
0.00400707
0.0040037
0.00399583
0.00398298
0.0039727
0.0039737
0.00395745
0.00394803
0.00393152
0.00392607
0.00390723
0.0038895
0.00388757
0.00389268
0.00389497
0.00388207
0.0038694
0.00385998
0.00385273
0.00384593
0.00383991
0.00383369
0.00382824
0.00382433
0.00382198
0.00382124
0.00382159
0.00382259
0.00382342
0.00382393
0.00382509
0.00382674
0.00382897
0.00383262
0.00383859
0.00384708
0.0038576
0.00386989
0.00388339
0.00389919
0.00391762
0.00394178
0.00397291
0.00400924
0.00403715
0.00406717
0.0041106
0.00417848
0.00426695
0.00435406
0.00447495
0.00461248
0.00478859
0.00498695
0.00524166
0.00555451
0.00593327
0.00640122
0.00694879
0.00761198
0.00839121
0.00933675
0.0104258
0.0116265
0.0128893
0.0141291
0.0153742
0.0158545
0.0167205
0.0162572
0.000179148
0.00120205
0.000707525
0.00135808
0.00151708
0.00164093
0.00168315
0.0017001
0.00170707
0.00171248
0.00171994
0.00171656
0.00170981
0.00169978
0.00169084
0.00169112
0.001679
0.00167008
0.00165571
0.00164938
0.0016332
0.00161899
0.00161715
0.00162035
0.00162061
0.00160875
0.00159695
0.00158799
0.00158132
0.00157509
0.00156949
0.00156369
0.00155872
0.00155499
0.00155278
0.00155223
0.0015526
0.00155348
0.00155424
0.00155497
0.00155618
0.00155783
0.00156012
0.00156365
0.00156947
0.00157772
0.00158781
0.00159956
0.00161259
0.00162805
0.00164617
0.00166976
0.00169967
0.00173476
0.00176399
0.00179575
0.00183958
0.00190475
0.00198999
0.00207863
0.00219713
0.0023338
0.00250586
0.00270485
0.00295849
0.00327039
0.00364931
0.00411589
0.00466567
0.00533377
0.00612201
0.00707053
0.00816459
0.00937186
0.0106457
0.0119074
0.0131308
0.013527
0.0141991
0.0125436
-0.0010935
0.00104446
0.000599422
0.00122786
0.00139818
0.00151324
0.00153211
0.00153804
0.00153217
0.0015273
0.00151659
0.0015053
0.00149713
0.00148617
0.00147495
0.0014704
0.00146186
0.00144973
0.00143764
0.00142793
0.00141817
0.00141037
0.00140487
0.00139963
0.00139331
0.00138552
0.00137865
0.00137276
0.00136834
0.00136447
0.00136133
0.00135807
0.00135511
0.00135303
0.00135191
0.00135172
0.00135218
0.00135287
0.00135359
0.00135441
0.00135541
0.00135656
0.00135851
0.00136136
0.00136552
0.00137146
0.0013789
0.00138738
0.00139711
0.00140892
0.00142323
0.00144181
0.00146447
0.00149233
0.00152295
0.00155801
0.00160132
0.0016559
0.00172442
0.00180646
0.00190901
0.00203216
0.00217821
0.00235617
0.00258104
0.00285341
0.00318354
0.00359284
0.00408791
0.00468195
0.0053877
0.00621508
0.00717053
0.00821319
0.00929896
0.0103553
0.0111686
0.0110082
0.0102776
0.00258902
0.000505617
0.000830611
0.00286847
0.00256355
0.0032765
0.00347309
0.00361178
0.00364729
0.00366838
0.00367298
0.0036773
0.00367392
0.00366775
0.00366273
0.00365381
0.00364467
0.00364154
0.00363385
0.003623
0.00361148
0.0036024
0.00359267
0.00358464
0.00357951
0.00357533
0.00356966
0.00356121
0.0035538
0.00354746
0.00354272
0.0035386
0.00353513
0.00353154
0.00352825
0.00352581
0.00352454
0.00352438
0.00352476
0.00352534
0.00352618
0.00352702
0.00352806
0.00352937
0.0035313
0.00353418
0.00353879
0.00354514
0.00355292
0.00356188
0.00357197
0.00358435
0.00359929
0.00361842
0.00364191
0.00367079
0.00370136
0.00373626
0.00377952
0.00383467
0.00390458
0.00398736
0.00409116
0.0042152
0.00436311
0.00454293
0.00476888
0.00504336
0.00537669
0.00578784
0.00628116
0.00687526
0.00757975
0.00840323
0.00934956
0.0103786
0.0114398
0.0124455
0.0132161
0.0130287
0.0124574
0.0060923
0.00527462
-0.00144062
-0.00123932
0.00131292
0.000703799
0.00135579
0.00151678
0.00163097
0.00165421
0.00166671
0.00166784
0.00167026
0.00166646
0.00165817
0.0016489
0.00163776
0.00162689
0.00162258
0.00161359
0.00160274
0.00159041
0.00158161
0.00157045
0.00156111
0.00155652
0.00155347
0.00154856
0.00153943
0.001531
0.0015238
0.00151853
0.00151369
0.00150957
0.00150553
0.00150174
0.00149887
0.0014974
0.00149697
0.00149737
0.00149811
0.00149875
0.0014995
0.00150067
0.00150192
0.00150389
0.00150702
0.00151166
0.00151845
0.00152698
0.00153651
0.00154717
0.00156011
0.00157555
0.00159576
0.00162055
0.00165058
0.00168083
0.0017148
0.00175772
0.00181406
0.00188614
0.00196944
0.00207463
0.00219959
0.00235075
0.00253288
0.00276172
0.00304054
0.00338005
0.00379661
0.00429356
0.00489082
0.00559886
0.00642598
0.00738149
0.00842382
0.00951047
0.0105604
0.0114067
0.01134
0.0113229
0.00527937
0.00768486
-0.00901561
-0.00342849
-5.24809e-05
0.00221529
0.00187623
0.00260272
0.00281795
0.00298015
0.00304319
0.00308118
0.00309767
0.00311291
0.00312255
0.00312291
0.00311996
0.00311413
0.00310739
0.00310737
0.00309993
0.00309162
0.00308035
0.00307334
0.0030616
0.00305161
0.00304845
0.003048
0.00304507
0.00303502
0.00302561
0.00301799
0.00301232
0.00300705
0.00300256
0.00299787
0.0029936
0.00299045
0.00298874
0.00298839
0.0029887
0.0029892
0.00299004
0.00299096
0.00299207
0.00299343
0.00299546
0.00299865
0.00300388
0.00301104
0.00301989
0.00303004
0.00304127
0.003055
0.00307115
0.00309197
0.00311802
0.00314933
0.00317837
0.00321055
0.003252
0.00330882
0.00338288
0.00346537
0.00357152
0.00369567
0.00384738
0.00402798
0.00425571
0.00453384
0.00487154
0.00528497
0.00577489
0.00636765
0.00706635
0.00788156
0.0088143
0.00982403
0.0108611
0.0118374
0.0126424
0.0125145
0.0124818
0.00739419
0.0110809
-0.00722271
-0.000149766
0.000348768
0.00263127
0.00231461
0.00301096
0.00322376
0.00338982
0.00346083
0.00350186
0.00352232
0.00353757
0.00355029
0.00355215
0.00354898
0.0035425
0.00353606
0.00353792
0.00352869
0.00352113
0.00350863
0.00350285
0.00348867
0.0034761
0.00347407
0.00347648
0.00347578
0.00346444
0.00345348
0.00344487
0.00343846
0.00343228
0.00342691
0.00342164
0.00341682
0.00341316
0.00341119
0.00341067
0.00341095
0.00341147
0.00341226
0.00341314
0.00341432
0.00341573
0.00341777
0.00342112
0.00342661
0.00343429
0.00344385
0.00345475
0.00346683
0.00348146
0.0034984
0.00352043
0.00354838
0.00358136
0.00360906
0.00363902
0.00367913
0.00373789
0.00381594
0.00389801
0.00400662
0.00413111
0.00428639
0.00446714
0.00469719
0.00497829
0.00531887
0.00573732
0.00622715
0.00682245
0.00752126
0.00833569
0.00926537
0.010277
0.0113108
0.012273
0.0131464
0.0131477
0.0134373
0.00901163
0.0123451
0.0120462
0.00127535
0.00454134
0.00557976
0.00510625
0.00567701
0.00591245
0.00608146
0.00615468
0.00620095
0.0062331
0.00624798
0.00626514
0.00627106
0.00627219
0.00626677
0.00626373
0.00627219
0.00626137
0.00625655
0.00624255
0.00624036
0.00622283
0.00620673
0.00620721
0.00621418
0.00621731
0.00620395
0.00619094
0.00618133
0.00617422
0.00616711
0.00616088
0.00615466
0.0061492
0.00614514
0.00614289
0.00614229
0.00614262
0.00614305
0.00614378
0.00614476
0.00614601
0.00614742
0.00614953
0.0061532
0.00615904
0.00616703
0.00617724
0.00618904
0.00620204
0.00621775
0.00623566
0.00625889
0.00628927
0.00632477
0.00634966
0.00637565
0.0064128
0.00647338
0.00655669
0.00663576
0.00674736
0.00686968
0.00702804
0.00720512
0.00743479
0.00771451
0.0080529
0.00847508
0.00896068
0.00955619
0.0102479
0.0110607
0.0119882
0.0130091
0.0140398
0.014919
0.0158741
0.0161988
0.0171219
0.0152011
0.0152829
0.0166282
0.00175392
0.00166246
0.00319298
0.00272131
0.00323915
0.00340647
0.00360725
0.00369871
0.00376164
0.00381853
0.00383904
0.00386552
0.00387688
0.0038827
0.00388065
0.0038789
0.00389391
0.00387823
0.00387587
0.00385913
0.0038612
0.00383942
0.00381731
0.00381883
0.00383032
0.00383764
0.00382202
0.00380738
0.00379707
0.00378947
0.00378147
0.00377425
0.00376764
0.00376195
0.00375748
0.00375499
0.00375429
0.00375457
0.00375495
0.00375571
0.0037565
0.00375764
0.00375904
0.0037609
0.0037644
0.00377046
0.00377888
0.00378972
0.00380225
0.00381625
0.00383271
0.00385093
0.00387509
0.00390744
0.00394529
0.0039674
0.00398995
0.00402546
0.0040907
0.00418137
0.0042563
0.00437222
0.00449273
0.00465743
0.00483116
0.00506185
0.00534181
0.00568033
0.00610152
0.00658406
0.0071766
0.00784682
0.00865776
0.00957315
0.010588
0.0115908
0.0125935
0.0136119
0.01411
0.0151118
0.0135205
0.0165073
0.0217504
-0.00086838
0.00683013
0.00574084
0.0053469
0.00567365
0.00573788
0.00598388
0.00606095
0.00609953
0.00616572
0.00618195
0.0062085
0.00622458
0.00623396
0.0062327
0.00623394
0.00625525
0.00623197
0.00623335
0.00621586
0.00622479
0.00620114
0.00617149
0.00616967
0.00618226
0.00619253
0.00617677
0.00616343
0.00615497
0.00614902
0.00614205
0.00613547
0.00612923
0.0061238
0.00611978
0.00611766
0.00611736
0.00611784
0.00611826
0.00611921
0.00612015
0.00612143
0.00612282
0.00612451
0.00612811
0.00613403
0.00614192
0.00615247
0.00616447
0.00617785
0.00619365
0.00621071
0.00623326
0.00626491
0.00630319
0.00632231
0.00634379
0.00638231
0.00645485
0.00654887
0.00661654
0.00673473
0.00685389
0.00702746
0.00719649
0.00742679
0.00770768
0.00804497
0.00846308
0.00894868
0.00954225
0.0101903
0.0110424
0.0119709
0.0130177
0.013962
0.0150645
0.0161704
0.0168754
0.0180812
0.0206653
0.0117949
0.0290186
-0.00269526
0.00526677
0.00458991
0.00441711
0.00469805
0.00475394
0.00489023
0.00493393
0.00495137
0.0050228
0.00505192
0.00508357
0.00510651
0.00512117
0.00512096
0.00512846
0.00515372
0.005121
0.00511845
0.00510977
0.00512031
0.00510603
0.00507596
0.0050601
0.00506376
0.00507054
0.00506177
0.00505629
0.00505514
0.00505523
0.00505297
0.00504991
0.00504641
0.0050434
0.00504141
0.00504024
0.00504047
0.00504084
0.0050412
0.0050424
0.00504289
0.00504375
0.00504513
0.00504663
0.00504949
0.00505401
0.0050603
0.00506884
0.00507842
0.00508867
0.00509953
0.00511053
0.00512599
0.00515028
0.00518167
0.00520145
0.00523168
0.00528519
0.00536475
0.00544581
0.00551145
0.00562125
0.00575084
0.00593078
0.00609845
0.00632589
0.00660885
0.00694514
0.00735571
0.00784235
0.00843335
0.00910762
0.00994735
0.0109071
0.0120155
0.0130572
0.0141884
0.0153614
0.0161845
0.0172773
0.0202687
0.011506
0.0356297
-0.00368694
0.00693589
0.00526713
0.00499445
0.00520692
0.0052332
0.00542137
0.00548971
0.00546657
0.00553634
0.00555801
0.00559805
0.00562462
0.00564366
0.00564907
0.00566242
0.00568883
0.00565708
0.00564722
0.00564438
0.00565222
0.00564032
0.00561825
0.00560757
0.00561747
0.00563039
0.00562114
0.00561174
0.00560791
0.00560642
0.00560345
0.00559983
0.00559575
0.00559215
0.00558956
0.00558808
0.00558821
0.00558804
0.00558818
0.00558927
0.00558982
0.00559084
0.00559257
0.00559475
0.00559777
0.00560284
0.00561004
0.00561867
0.00562866
0.00563983
0.0056514
0.00566447
0.00568302
0.0057114
0.00574351
0.00575655
0.00578025
0.00582927
0.00590296
0.00598
0.00604972
0.0061543
0.00629377
0.00647277
0.00664133
0.00686514
0.00714507
0.00747973
0.00788744
0.00837237
0.00896165
0.00967411
0.0105202
0.0114997
0.0125759
0.0135918
0.0147746
0.0159953
0.0169331
0.0182631
0.0227618
0.0117095
0.0403346
-0.00423174
0.00671803
0.0051696
0.00498117
0.0051781
0.00519157
0.00537446
0.00543693
0.00535229
0.00543231
0.00547651
0.00550938
0.00554135
0.00556303
0.00556927
0.0055838
0.00560813
0.00558201
0.00556782
0.00556336
0.00556554
0.00555722
0.00554768
0.00554939
0.00556522
0.00558132
0.00556455
0.00554573
0.00553448
0.00552826
0.00552254
0.00551669
0.00551084
0.00550596
0.00550218
0.00549985
0.00549943
0.00549868
0.00549862
0.00549967
0.00550035
0.00550158
0.00550371
0.00550667
0.00551029
0.00551617
0.00552465
0.00553472
0.00554655
0.00555989
0.00557408
0.00559189
0.00561813
0.00565598
0.00569575
0.00570562
0.00572338
0.00576092
0.00582218
0.00589597
0.00597326
0.00607965
0.00622301
0.00639885
0.00657026
0.00679454
0.00707622
0.00741192
0.00781639
0.00831192
0.00890651
0.00956922
0.01044
0.0115027
0.0125869
0.0136306
0.0148458
0.0161008
0.0170966
0.0184216
0.0231363
0.0119152
0.0430852
-0.00423006
0.00672045
0.00517098
0.00498193
0.00517851
0.00519187
0.00537447
0.00543719
0.00535198
0.00543271
0.00547665
0.00550951
0.0055415
0.00556316
0.00556938
0.0055838
0.00560838
0.00558204
0.00556812
0.00556353
0.00556555
0.00555724
0.00554783
0.00554973
0.00556527
0.0055814
0.00556449
0.00554572
0.0055345
0.00552814
0.00552234
0.00551658
0.00551077
0.00550569
0.00550186
0.00549981
0.0054991
0.00549849
0.00549899
0.00549987
0.00550038
0.00550153
0.00550365
0.00550685
0.00551045
0.00551633
0.00552497
0.00553522
0.00554711
0.00556026
0.00557449
0.00559198
0.00561846
0.00565642
0.00569632
0.00570635
0.00572419
0.0057621
0.00582407
0.00589803
0.00597573
0.00608262
0.0062269
0.00640371
0.00657635
0.00680235
0.00708629
0.00742472
0.00783267
0.00833259
0.00893276
0.009602
0.010483
0.0115556
0.0126533
0.0137139
0.0149494
0.0162282
0.0172514
0.0186069
0.0233593
0.0121676
0.0438609
-0.00368192
0.0069433
0.00527086
0.00499609
0.00520744
0.00523335
0.00542028
0.00548945
0.00546691
0.0055359
0.00555788
0.00559799
0.00562442
0.00564346
0.00564892
0.00566202
0.00568928
0.00565692
0.00564761
0.00564432
0.00565168
0.00563956
0.00561798
0.00560792
0.00561709
0.00563014
0.00562084
0.00561128
0.00560741
0.00560585
0.00560279
0.00559929
0.00559515
0.00559141
0.00558868
0.00558756
0.00558721
0.00558717
0.00558831
0.00558945
0.00559003
0.00559118
0.00559277
0.00559547
0.00559866
0.00560368
0.00561119
0.00562018
0.0056305
0.00564134
0.00565281
0.00566536
0.00568454
0.00571334
0.00574575
0.00575925
0.00578334
0.00583353
0.00590864
0.00598684
0.00605785
0.00616417
0.00630639
0.00648822
0.00666052
0.0068896
0.00717646
0.00751946
0.00793775
0.00843614
0.00904076
0.00977505
0.0106496
0.0116621
0.0127794
0.0138462
0.0150907
0.0163837
0.0174045
0.0188313
0.0234846
0.0124742
0.0426398
-0.00268696
0.00527931
0.00459576
0.00441928
0.00469822
0.00475357
0.00488608
0.00493305
0.00495092
0.00502177
0.00505095
0.00508287
0.00510554
0.00512015
0.00511999
0.00512717
0.00515339
0.00511984
0.00511808
0.00510921
0.00511887
0.0051042
0.00507492
0.00505979
0.00506293
0.00507009
0.0050611
0.00505517
0.00505398
0.00505405
0.00505183
0.00504905
0.00504525
0.005042
0.00503983
0.00503903
0.0050391
0.0050396
0.00504111
0.00504214
0.00504282
0.00504418
0.00504556
0.00504788
0.00505077
0.00505533
0.00506242
0.00507088
0.00508057
0.00509077
0.00510161
0.00511251
0.00512884
0.00515364
0.00518544
0.00520613
0.00523695
0.00529251
0.00537436
0.00545733
0.00552486
0.00563769
0.00577179
0.00595617
0.00612994
0.00636602
0.00666007
0.00700984
0.00743781
0.00794643
0.00856263
0.00927046
0.0101583
0.0111713
0.0123463
0.0134708
0.0147055
0.0159977
0.0169601
0.0182042
0.0213779
0.0127951
0.0394511
-0.000857082
0.00684972
0.00575024
0.00535105
0.0056748
0.00573903
0.00598363
0.00606144
0.00610134
0.00616648
0.00618227
0.00620915
0.00622494
0.0062343
0.0062333
0.00623434
0.00625605
0.00623222
0.00623405
0.00621647
0.0062246
0.00620033
0.00617155
0.00617055
0.00618268
0.00619358
0.00617771
0.00616425
0.00615564
0.00614931
0.00614256
0.00613636
0.0061297
0.00612415
0.00612029
0.00611789
0.00611726
0.00611777
0.00611916
0.00612002
0.00612042
0.00612165
0.00612305
0.00612495
0.00612841
0.00613422
0.00614282
0.00615341
0.00616602
0.0061797
0.00619512
0.0062122
0.00623558
0.00626766
0.0063067
0.00632756
0.00635049
0.00639168
0.00646754
0.00656412
0.00663426
0.00675696
0.00688232
0.00706226
0.00724015
0.00748287
0.00777971
0.00813623
0.00857884
0.00909609
0.00972547
0.0104209
0.0113417
0.0123459
0.0134887
0.0145516
0.015802
0.0170756
0.0179777
0.0194016
0.022248
0.0135976
0.0343299
0.000982388
0.00168984
0.00320391
0.0027255
0.00323857
0.00340666
0.00360653
0.00369834
0.00376152
0.00381773
0.00383815
0.00386503
0.00387596
0.00388172
0.00387986
0.00387809
0.00389336
0.00387756
0.00387527
0.0038585
0.00386017
0.00383782
0.0038165
0.003819
0.00383019
0.00383773
0.00382179
0.00380676
0.00379634
0.00378865
0.00378096
0.00377399
0.00376686
0.00376107
0.00375682
0.00375417
0.00375355
0.00375394
0.0037551
0.00375601
0.00375676
0.0037582
0.00375998
0.00376224
0.00376578
0.00377189
0.00378095
0.00379197
0.00380488
0.00381914
0.00383582
0.00385464
0.0038797
0.00391285
0.00395173
0.00397532
0.00399949
0.00403796
0.0041069
0.00420118
0.00428026
0.00440191
0.00452991
0.00470324
0.00488824
0.00513437
0.0054339
0.00579675
0.00624951
0.00677115
0.00740942
0.00813865
0.00903362
0.0100469
0.0111839
0.0123355
0.0135271
0.0147579
0.0155088
0.0167929
0.0155111
0.0162895
0.0273342
0.00217943
0.00458037
0.0055937
0.0051123
0.00567323
0.00591378
0.00608216
0.00615494
0.0062013
0.00623324
0.00624797
0.00626547
0.00627115
0.00627217
0.00626697
0.00626389
0.0062724
0.00626147
0.00625667
0.00624266
0.00624012
0.00622237
0.00620668
0.00620753
0.00621438
0.00621772
0.00620424
0.00619137
0.00618183
0.00617444
0.00616744
0.00616141
0.00615509
0.00614946
0.00614546
0.00614311
0.00614239
0.00614283
0.00614386
0.00614475
0.0061453
0.00614643
0.00614801
0.00615015
0.00615384
0.00615981
0.00616841
0.00617908
0.00619148
0.00620498
0.00622086
0.00623922
0.00626348
0.00629479
0.00633167
0.00635886
0.00638724
0.00642766
0.00649266
0.00658039
0.00666436
0.006783
0.00691449
0.00708401
0.0072751
0.00752366
0.00782749
0.00819587
0.00865624
0.00919002
0.00984243
0.0106063
0.011522
0.0125713
0.0137429
0.0149558
0.0160835
0.0172976
0.0179326
0.0192049
0.0176802
0.0186721
0.0216744
0.00209387
0.00040036
0.00264671
0.00232185
0.00301215
0.00322523
0.00339058
0.00346124
0.00350203
0.00352209
0.00353743
0.00355036
0.00355196
0.00354879
0.00354243
0.00353599
0.00353795
0.00352871
0.00352114
0.0035086
0.0035026
0.00348812
0.00347593
0.00347436
0.00347665
0.00347599
0.00346454
0.00345344
0.00344487
0.00343847
0.00343253
0.00342727
0.00342178
0.00341704
0.00341344
0.00341134
0.00341086
0.00341128
0.00341216
0.00341294
0.00341369
0.00341491
0.00341652
0.00341875
0.00342225
0.00342795
0.0034361
0.00344606
0.00345752
0.0034702
0.00348539
0.00350322
0.00352645
0.00355567
0.00359034
0.0036203
0.00365296
0.00369676
0.00376017
0.00384345
0.00393191
0.00404888
0.00418414
0.00435294
0.00455043
0.0048024
0.00511141
0.00548716
0.00595013
0.00649627
0.00715941
0.00794333
0.00887863
0.00995339
0.0111442
0.0123961
0.0136304
0.01482
0.0151941
0.0159001
0.0119427
0.0197167
0.0187295
0.00022676
-1.47826e-05
0.00223064
0.00188493
0.00260583
0.00282001
0.00298136
0.00304382
0.00308139
0.00309764
0.00311297
0.0031227
0.0031229
0.00311984
0.00311409
0.00310746
0.00310752
0.00310006
0.00309165
0.0030803
0.00307322
0.00306131
0.00305153
0.00304867
0.00304809
0.00304516
0.00303514
0.00302568
0.00301815
0.00301248
0.00300731
0.0030029
0.00299818
0.00299397
0.00299082
0.00298907
0.00298871
0.00298916
0.00299004
0.00299084
0.00299157
0.00299275
0.00299432
0.00299649
0.00299987
0.00300527
0.00301292
0.00302236